V -t * -v 1.0a5 -a 0
A -t * -n 1 -p 0 -o 0x7fffffff -c 30 -a 1
A -t * -h 1 -m 1073741823 -s 0
n -t * -a 0 -s 0 -S UP -v circle -c black -i black
n -t * -a 1 -s 1 -S UP -v circle -c black -i black
n -t * -a 2 -s 2 -S UP -v circle -c black -i black
n -t * -a 3 -s 3 -S UP -v circle -c black -i black
l -t * -s 0 -d 2 -S UP -r 2000000 -D 0.002 -c black
l -t * -s 1 -d 2 -S UP -r 2000000 -D 0.002 -c black
l -t * -s 2 -d 3 -S UP -r 2000000 -D 0.002 -c black
+ -t 0.5 -s 1 -d 2 -p cbr -e 210 -c 0 -i 0 -a 0 -x {1.0 3.0 0 ------- null}
- -t 0.5 -s 1 -d 2 -p cbr -e 210 -c 0 -i 0 -a 0 -x {1.0 3.0 0 ------- null}
h -t 0.5 -s 1 -d 2 -p cbr -e 210 -c 0 -i 0 -a 0 -x {1.0 3.0 -1 ------- null}
+ -t 0.5 -s 0 -d 2 -p tcp -e 40 -c 0 -i 1 -a 0 -x {0.0 3.1 0 ------- null}
- -t 0.5 -s 0 -d 2 -p tcp -e 40 -c 0 -i 1 -a 0 -x {0.0 3.1 0 ------- null}
h -t 0.5 -s 0 -d 2 -p tcp -e 40 -c 0 -i 1 -a 0 -x {0.0 3.1 -1 ------- null}
r -t 0.50216 -s 0 -d 2 -p tcp -e 40 -c 0 -i 1 -a 0 -x {0.0 3.1 0 ------- null}
+ -t 0.50216 -s 2 -d 3 -p tcp -e 40 -c 0 -i 1 -a 0 -x {0.0 3.1 0 ------- null}
- -t 0.50216 -s 2 -d 3 -p tcp -e 40 -c 0 -i 1 -a 0 -x {0.0 3.1 0 ------- null}
h -t 0.50216 -s 2 -d 3 -p tcp -e 40 -c 0 -i 1 -a 0 -x {0.0 3.1 -1 ------- null}
r -t 0.50284 -s 1 -d 2 -p cbr -e 210 -c 0 -i 0 -a 0 -x {1.0 3.0 0 ------- null}
+ -t 0.50284 -s 2 -d 3 -p cbr -e 210 -c 0 -i 0 -a 0 -x {1.0 3.0 0 ------- null}
- -t 0.50284 -s 2 -d 3 -p cbr -e 210 -c 0 -i 0 -a 0 -x {1.0 3.0 0 ------- null}
h -t 0.50284 -s 2 -d 3 -p cbr -e 210 -c 0 -i 0 -a 0 -x {1.0 3.0 -1 ------- null}
+ -t 0.50375 -s 1 -d 2 -p cbr -e 210 -c 0 -i 2 -a 0 -x {1.0 3.0 1 ------- null}
- -t 0.50375 -s 1 -d 2 -p cbr -e 210 -c 0 -i 2 -a 0 -x {1.0 3.0 1 ------- null}
h -t 0.50375 -s 1 -d 2 -p cbr -e 210 -c 0 -i 2 -a 0 -x {1.0 3.0 -1 ------- null}
r -t 0.50432 -s 2 -d 3 -p tcp -e 40 -c 0 -i 1 -a 0 -x {0.0 3.1 0 ------- null}
+ -t 0.50432 -s 3 -d 2 -p ack -e 40 -c 0 -i 3 -a 0 -x {3.1 0.0 0 ------- null}
- -t 0.50432 -s 3 -d 2 -p ack -e 40 -c 0 -i 3 -a 0 -x {3.1 0.0 0 ------- null}
h -t 0.50432 -s 3 -d 2 -p ack -e 40 -c 0 -i 3 -a 0 -x {3.1 0.0 -1 ------- null}
r -t 0.50568 -s 2 -d 3 -p cbr -e 210 -c 0 -i 0 -a 0 -x {1.0 3.0 0 ------- null}
r -t 0.50648 -s 3 -d 2 -p ack -e 40 -c 0 -i 3 -a 0 -x {3.1 0.0 0 ------- null}
+ -t 0.50648 -s 2 -d 0 -p ack -e 40 -c 0 -i 3 -a 0 -x {3.1 0.0 0 ------- null}
- -t 0.50648 -s 2 -d 0 -p ack -e 40 -c 0 -i 3 -a 0 -x {3.1 0.0 0 ------- null}
h -t 0.50648 -s 2 -d 0 -p ack -e 40 -c 0 -i 3 -a 0 -x {3.1 0.0 -1 ------- null}
r -t 0.50659 -s 1 -d 2 -p cbr -e 210 -c 0 -i 2 -a 0 -x {1.0 3.0 1 ------- null}
+ -t 0.50659 -s 2 -d 3 -p cbr -e 210 -c 0 -i 2 -a 0 -x {1.0 3.0 1 ------- null}
- -t 0.50659 -s 2 -d 3 -p cbr -e 210 -c 0 -i 2 -a 0 -x {1.0 3.0 1 ------- null}
h -t 0.50659 -s 2 -d 3 -p cbr -e 210 -c 0 -i 2 -a 0 -x {1.0 3.0 -1 ------- null}
+ -t 0.5075 -s 1 -d 2 -p cbr -e 210 -c 0 -i 4 -a 0 -x {1.0 3.0 2 ------- null}
- -t 0.5075 -s 1 -d 2 -p cbr -e 210 -c 0 -i 4 -a 0 -x {1.0 3.0 2 ------- null}
h -t 0.5075 -s 1 -d 2 -p cbr -e 210 -c 0 -i 4 -a 0 -x {1.0 3.0 -1 ------- null}
r -t 0.50864 -s 2 -d 0 -p ack -e 40 -c 0 -i 3 -a 0 -x {3.1 0.0 0 ------- null}
+ -t 0.50864 -s 0 -d 2 -p tcp -e 1040 -c 0 -i 5 -a 0 -x {0.0 3.1 1 ------- null}
- -t 0.50864 -s 0 -d 2 -p tcp -e 1040 -c 0 -i 5 -a 0 -x {0.0 3.1 1 ------- null}
h -t 0.50864 -s 0 -d 2 -p tcp -e 1040 -c 0 -i 5 -a 0 -x {0.0 3.1 -1 ------- null}
+ -t 0.50864 -s 0 -d 2 -p tcp -e 1040 -c 0 -i 6 -a 0 -x {0.0 3.1 2 ------- null}
r -t 0.50943 -s 2 -d 3 -p cbr -e 210 -c 0 -i 2 -a 0 -x {1.0 3.0 1 ------- null}
r -t 0.51034 -s 1 -d 2 -p cbr -e 210 -c 0 -i 4 -a 0 -x {1.0 3.0 2 ------- null}
+ -t 0.51034 -s 2 -d 3 -p cbr -e 210 -c 0 -i 4 -a 0 -x {1.0 3.0 2 ------- null}
- -t 0.51034 -s 2 -d 3 -p cbr -e 210 -c 0 -i 4 -a 0 -x {1.0 3.0 2 ------- null}
h -t 0.51034 -s 2 -d 3 -p cbr -e 210 -c 0 -i 4 -a 0 -x {1.0 3.0 -1 ------- null}
+ -t 0.51125 -s 1 -d 2 -p cbr -e 210 -c 0 -i 7 -a 0 -x {1.0 3.0 3 ------- null}
- -t 0.51125 -s 1 -d 2 -p cbr -e 210 -c 0 -i 7 -a 0 -x {1.0 3.0 3 ------- null}
h -t 0.51125 -s 1 -d 2 -p cbr -e 210 -c 0 -i 7 -a 0 -x {1.0 3.0 -1 ------- null}
- -t 0.5128 -s 0 -d 2 -p tcp -e 1040 -c 0 -i 6 -a 0 -x {0.0 3.1 2 ------- null}
h -t 0.5128 -s 0 -d 2 -p tcp -e 1040 -c 0 -i 6 -a 0 -x {0.0 3.1 -1 ------- null}
r -t 0.51318 -s 2 -d 3 -p cbr -e 210 -c 0 -i 4 -a 0 -x {1.0 3.0 2 ------- null}
r -t 0.51409 -s 1 -d 2 -p cbr -e 210 -c 0 -i 7 -a 0 -x {1.0 3.0 3 ------- null}
+ -t 0.51409 -s 2 -d 3 -p cbr -e 210 -c 0 -i 7 -a 0 -x {1.0 3.0 3 ------- null}
- -t 0.51409 -s 2 -d 3 -p cbr -e 210 -c 0 -i 7 -a 0 -x {1.0 3.0 3 ------- null}
h -t 0.51409 -s 2 -d 3 -p cbr -e 210 -c 0 -i 7 -a 0 -x {1.0 3.0 -1 ------- null}
r -t 0.5148 -s 0 -d 2 -p tcp -e 1040 -c 0 -i 5 -a 0 -x {0.0 3.1 1 ------- null}
+ -t 0.5148 -s 2 -d 3 -p tcp -e 1040 -c 0 -i 5 -a 0 -x {0.0 3.1 1 ------- null}
- -t 0.51493 -s 2 -d 3 -p tcp -e 1040 -c 0 -i 5 -a 0 -x {0.0 3.1 1 ------- null}
h -t 0.51493 -s 2 -d 3 -p tcp -e 1040 -c 0 -i 5 -a 0 -x {0.0 3.1 -1 ------- null}
+ -t 0.515 -s 1 -d 2 -p cbr -e 210 -c 0 -i 8 -a 0 -x {1.0 3.0 4 ------- null}
- -t 0.515 -s 1 -d 2 -p cbr -e 210 -c 0 -i 8 -a 0 -x {1.0 3.0 4 ------- null}
h -t 0.515 -s 1 -d 2 -p cbr -e 210 -c 0 -i 8 -a 0 -x {1.0 3.0 -1 ------- null}
r -t 0.51693 -s 2 -d 3 -p cbr -e 210 -c 0 -i 7 -a 0 -x {1.0 3.0 3 ------- null}
r -t 0.51784 -s 1 -d 2 -p cbr -e 210 -c 0 -i 8 -a 0 -x {1.0 3.0 4 ------- null}
+ -t 0.51784 -s 2 -d 3 -p cbr -e 210 -c 0 -i 8 -a 0 -x {1.0 3.0 4 ------- null}
+ -t 0.51875 -s 1 -d 2 -p cbr -e 210 -c 0 -i 9 -a 0 -x {1.0 3.0 5 ------- null}
- -t 0.51875 -s 1 -d 2 -p cbr -e 210 -c 0 -i 9 -a 0 -x {1.0 3.0 5 ------- null}
h -t 0.51875 -s 1 -d 2 -p cbr -e 210 -c 0 -i 9 -a 0 -x {1.0 3.0 -1 ------- null}
r -t 0.51896 -s 0 -d 2 -p tcp -e 1040 -c 0 -i 6 -a 0 -x {0.0 3.1 2 ------- null}
+ -t 0.51896 -s 2 -d 3 -p tcp -e 1040 -c 0 -i 6 -a 0 -x {0.0 3.1 2 ------- null}
- -t 0.51909 -s 2 -d 3 -p cbr -e 210 -c 0 -i 8 -a 0 -x {1.0 3.0 4 ------- null}
h -t 0.51909 -s 2 -d 3 -p cbr -e 210 -c 0 -i 8 -a 0 -x {1.0 3.0 -1 ------- null}
- -t 0.51993 -s 2 -d 3 -p tcp -e 1040 -c 0 -i 6 -a 0 -x {0.0 3.1 2 ------- null}
h -t 0.51993 -s 2 -d 3 -p tcp -e 1040 -c 0 -i 6 -a 0 -x {0.0 3.1 -1 ------- null}
r -t 0.52109 -s 2 -d 3 -p tcp -e 1040 -c 0 -i 5 -a 0 -x {0.0 3.1 1 ------- null}
+ -t 0.52109 -s 3 -d 2 -p ack -e 40 -c 0 -i 10 -a 0 -x {3.1 0.0 1 ------- null}
- -t 0.52109 -s 3 -d 2 -p ack -e 40 -c 0 -i 10 -a 0 -x {3.1 0.0 1 ------- null}
h -t 0.52109 -s 3 -d 2 -p ack -e 40 -c 0 -i 10 -a 0 -x {3.1 0.0 -1 ------- null}
r -t 0.52159 -s 1 -d 2 -p cbr -e 210 -c 0 -i 9 -a 0 -x {1.0 3.0 5 ------- null}
+ -t 0.52159 -s 2 -d 3 -p cbr -e 210 -c 0 -i 9 -a 0 -x {1.0 3.0 5 ------- null}
r -t 0.52193 -s 2 -d 3 -p cbr -e 210 -c 0 -i 8 -a 0 -x {1.0 3.0 4 ------- null}
+ -t 0.5225 -s 1 -d 2 -p cbr -e 210 -c 0 -i 11 -a 0 -x {1.0 3.0 6 ------- null}
- -t 0.5225 -s 1 -d 2 -p cbr -e 210 -c 0 -i 11 -a 0 -x {1.0 3.0 6 ------- null}
h -t 0.5225 -s 1 -d 2 -p cbr -e 210 -c 0 -i 11 -a 0 -x {1.0 3.0 -1 ------- null}
r -t 0.52325 -s 3 -d 2 -p ack -e 40 -c 0 -i 10 -a 0 -x {3.1 0.0 1 ------- null}
+ -t 0.52325 -s 2 -d 0 -p ack -e 40 -c 0 -i 10 -a 0 -x {3.1 0.0 1 ------- null}
- -t 0.52325 -s 2 -d 0 -p ack -e 40 -c 0 -i 10 -a 0 -x {3.1 0.0 1 ------- null}
h -t 0.52325 -s 2 -d 0 -p ack -e 40 -c 0 -i 10 -a 0 -x {3.1 0.0 -1 ------- null}
- -t 0.52409 -s 2 -d 3 -p cbr -e 210 -c 0 -i 9 -a 0 -x {1.0 3.0 5 ------- null}
h -t 0.52409 -s 2 -d 3 -p cbr -e 210 -c 0 -i 9 -a 0 -x {1.0 3.0 -1 ------- null}
r -t 0.52534 -s 1 -d 2 -p cbr -e 210 -c 0 -i 11 -a 0 -x {1.0 3.0 6 ------- null}
+ -t 0.52534 -s 2 -d 3 -p cbr -e 210 -c 0 -i 11 -a 0 -x {1.0 3.0 6 ------- null}
- -t 0.52534 -s 2 -d 3 -p cbr -e 210 -c 0 -i 11 -a 0 -x {1.0 3.0 6 ------- null}
h -t 0.52534 -s 2 -d 3 -p cbr -e 210 -c 0 -i 11 -a 0 -x {1.0 3.0 -1 ------- null}
r -t 0.52541 -s 2 -d 0 -p ack -e 40 -c 0 -i 10 -a 0 -x {3.1 0.0 1 ------- null}
+ -t 0.52541 -s 0 -d 2 -p tcp -e 1040 -c 0 -i 12 -a 0 -x {0.0 3.1 3 ------- null}
- -t 0.52541 -s 0 -d 2 -p tcp -e 1040 -c 0 -i 12 -a 0 -x {0.0 3.1 3 ------- null}
h -t 0.52541 -s 0 -d 2 -p tcp -e 1040 -c 0 -i 12 -a 0 -x {0.0 3.1 -1 ------- null}
+ -t 0.52541 -s 0 -d 2 -p tcp -e 1040 -c 0 -i 13 -a 0 -x {0.0 3.1 4 ------- null}
r -t 0.52609 -s 2 -d 3 -p tcp -e 1040 -c 0 -i 6 -a 0 -x {0.0 3.1 2 ------- null}
+ -t 0.52609 -s 3 -d 2 -p ack -e 40 -c 0 -i 14 -a 0 -x {3.1 0.0 2 ------- null}
- -t 0.52609 -s 3 -d 2 -p ack -e 40 -c 0 -i 14 -a 0 -x {3.1 0.0 2 ------- null}
h -t 0.52609 -s 3 -d 2 -p ack -e 40 -c 0 -i 14 -a 0 -x {3.1 0.0 -1 ------- null}
+ -t 0.52625 -s 1 -d 2 -p cbr -e 210 -c 0 -i 15 -a 0 -x {1.0 3.0 7 ------- null}
- -t 0.52625 -s 1 -d 2 -p cbr -e 210 -c 0 -i 15 -a 0 -x {1.0 3.0 7 ------- null}
h -t 0.52625 -s 1 -d 2 -p cbr -e 210 -c 0 -i 15 -a 0 -x {1.0 3.0 -1 ------- null}
r -t 0.52693 -s 2 -d 3 -p cbr -e 210 -c 0 -i 9 -a 0 -x {1.0 3.0 5 ------- null}
r -t 0.52818 -s 2 -d 3 -p cbr -e 210 -c 0 -i 11 -a 0 -x {1.0 3.0 6 ------- null}
r -t 0.52825 -s 3 -d 2 -p ack -e 40 -c 0 -i 14 -a 0 -x {3.1 0.0 2 ------- null}
+ -t 0.52825 -s 2 -d 0 -p ack -e 40 -c 0 -i 14 -a 0 -x {3.1 0.0 2 ------- null}
- -t 0.52825 -s 2 -d 0 -p ack -e 40 -c 0 -i 14 -a 0 -x {3.1 0.0 2 ------- null}
h -t 0.52825 -s 2 -d 0 -p ack -e 40 -c 0 -i 14 -a 0 -x {3.1 0.0 -1 ------- null}
r -t 0.52909 -s 1 -d 2 -p cbr -e 210 -c 0 -i 15 -a 0 -x {1.0 3.0 7 ------- null}
+ -t 0.52909 -s 2 -d 3 -p cbr -e 210 -c 0 -i 15 -a 0 -x {1.0 3.0 7 ------- null}
- -t 0.52909 -s 2 -d 3 -p cbr -e 210 -c 0 -i 15 -a 0 -x {1.0 3.0 7 ------- null}
h -t 0.52909 -s 2 -d 3 -p cbr -e 210 -c 0 -i 15 -a 0 -x {1.0 3.0 -1 ------- null}
- -t 0.52957 -s 0 -d 2 -p tcp -e 1040 -c 0 -i 13 -a 0 -x {0.0 3.1 4 ------- null}
h -t 0.52957 -s 0 -d 2 -p tcp -e 1040 -c 0 -i 13 -a 0 -x {0.0 3.1 -1 ------- null}
+ -t 0.53 -s 1 -d 2 -p cbr -e 210 -c 0 -i 16 -a 0 -x {1.0 3.0 8 ------- null}
- -t 0.53 -s 1 -d 2 -p cbr -e 210 -c 0 -i 16 -a 0 -x {1.0 3.0 8 ------- null}
h -t 0.53 -s 1 -d 2 -p cbr -e 210 -c 0 -i 16 -a 0 -x {1.0 3.0 -1 ------- null}
r -t 0.53041 -s 2 -d 0 -p ack -e 40 -c 0 -i 14 -a 0 -x {3.1 0.0 2 ------- null}
+ -t 0.53041 -s 0 -d 2 -p tcp -e 1040 -c 0 -i 17 -a 0 -x {0.0 3.1 5 ------- null}
+ -t 0.53041 -s 0 -d 2 -p tcp -e 1040 -c 0 -i 18 -a 0 -x {0.0 3.1 6 ------- null}
r -t 0.53157 -s 0 -d 2 -p tcp -e 1040 -c 0 -i 12 -a 0 -x {0.0 3.1 3 ------- null}
+ -t 0.53157 -s 2 -d 3 -p tcp -e 1040 -c 0 -i 12 -a 0 -x {0.0 3.1 3 ------- null}
- -t 0.53157 -s 2 -d 3 -p tcp -e 1040 -c 0 -i 12 -a 0 -x {0.0 3.1 3 ------- null}
h -t 0.53157 -s 2 -d 3 -p tcp -e 1040 -c 0 -i 12 -a 0 -x {0.0 3.1 -1 ------- null}
r -t 0.53193 -s 2 -d 3 -p cbr -e 210 -c 0 -i 15 -a 0 -x {1.0 3.0 7 ------- null}
r -t 0.53284 -s 1 -d 2 -p cbr -e 210 -c 0 -i 16 -a 0 -x {1.0 3.0 8 ------- null}
+ -t 0.53284 -s 2 -d 3 -p cbr -e 210 -c 0 -i 16 -a 0 -x {1.0 3.0 8 ------- null}
- -t 0.53373 -s 0 -d 2 -p tcp -e 1040 -c 0 -i 17 -a 0 -x {0.0 3.1 5 ------- null}
h -t 0.53373 -s 0 -d 2 -p tcp -e 1040 -c 0 -i 17 -a 0 -x {0.0 3.1 -1 ------- null}
+ -t 0.53375 -s 1 -d 2 -p cbr -e 210 -c 0 -i 19 -a 0 -x {1.0 3.0 9 ------- null}
- -t 0.53375 -s 1 -d 2 -p cbr -e 210 -c 0 -i 19 -a 0 -x {1.0 3.0 9 ------- null}
h -t 0.53375 -s 1 -d 2 -p cbr -e 210 -c 0 -i 19 -a 0 -x {1.0 3.0 -1 ------- null}
r -t 0.53573 -s 0 -d 2 -p tcp -e 1040 -c 0 -i 13 -a 0 -x {0.0 3.1 4 ------- null}
+ -t 0.53573 -s 2 -d 3 -p tcp -e 1040 -c 0 -i 13 -a 0 -x {0.0 3.1 4 ------- null}
- -t 0.53573 -s 2 -d 3 -p cbr -e 210 -c 0 -i 16 -a 0 -x {1.0 3.0 8 ------- null}
h -t 0.53573 -s 2 -d 3 -p cbr -e 210 -c 0 -i 16 -a 0 -x {1.0 3.0 -1 ------- null}
- -t 0.53657 -s 2 -d 3 -p tcp -e 1040 -c 0 -i 13 -a 0 -x {0.0 3.1 4 ------- null}
h -t 0.53657 -s 2 -d 3 -p tcp -e 1040 -c 0 -i 13 -a 0 -x {0.0 3.1 -1 ------- null}
r -t 0.53659 -s 1 -d 2 -p cbr -e 210 -c 0 -i 19 -a 0 -x {1.0 3.0 9 ------- null}
+ -t 0.53659 -s 2 -d 3 -p cbr -e 210 -c 0 -i 19 -a 0 -x {1.0 3.0 9 ------- null}
+ -t 0.5375 -s 1 -d 2 -p cbr -e 210 -c 0 -i 20 -a 0 -x {1.0 3.0 10 ------- null}
- -t 0.5375 -s 1 -d 2 -p cbr -e 210 -c 0 -i 20 -a 0 -x {1.0 3.0 10 ------- null}
h -t 0.5375 -s 1 -d 2 -p cbr -e 210 -c 0 -i 20 -a 0 -x {1.0 3.0 -1 ------- null}
r -t 0.53773 -s 2 -d 3 -p tcp -e 1040 -c 0 -i 12 -a 0 -x {0.0 3.1 3 ------- null}
+ -t 0.53773 -s 3 -d 2 -p ack -e 40 -c 0 -i 21 -a 0 -x {3.1 0.0 3 ------- null}
- -t 0.53773 -s 3 -d 2 -p ack -e 40 -c 0 -i 21 -a 0 -x {3.1 0.0 3 ------- null}
h -t 0.53773 -s 3 -d 2 -p ack -e 40 -c 0 -i 21 -a 0 -x {3.1 0.0 -1 ------- null}
- -t 0.53789 -s 0 -d 2 -p tcp -e 1040 -c 0 -i 18 -a 0 -x {0.0 3.1 6 ------- null}
h -t 0.53789 -s 0 -d 2 -p tcp -e 1040 -c 0 -i 18 -a 0 -x {0.0 3.1 -1 ------- null}
r -t 0.53857 -s 2 -d 3 -p cbr -e 210 -c 0 -i 16 -a 0 -x {1.0 3.0 8 ------- null}
r -t 0.53989 -s 0 -d 2 -p tcp -e 1040 -c 0 -i 17 -a 0 -x {0.0 3.1 5 ------- null}
+ -t 0.53989 -s 2 -d 3 -p tcp -e 1040 -c 0 -i 17 -a 0 -x {0.0 3.1 5 ------- null}
r -t 0.53989 -s 3 -d 2 -p ack -e 40 -c 0 -i 21 -a 0 -x {3.1 0.0 3 ------- null}
+ -t 0.53989 -s 2 -d 0 -p ack -e 40 -c 0 -i 21 -a 0 -x {3.1 0.0 3 ------- null}
- -t 0.53989 -s 2 -d 0 -p ack -e 40 -c 0 -i 21 -a 0 -x {3.1 0.0 3 ------- null}
h -t 0.53989 -s 2 -d 0 -p ack -e 40 -c 0 -i 21 -a 0 -x {3.1 0.0 -1 ------- null}
r -t 0.54034 -s 1 -d 2 -p cbr -e 210 -c 0 -i 20 -a 0 -x {1.0 3.0 10 ------- null}
+ -t 0.54034 -s 2 -d 3 -p cbr -e 210 -c 0 -i 20 -a 0 -x {1.0 3.0 10 ------- null}
- -t 0.54073 -s 2 -d 3 -p cbr -e 210 -c 0 -i 19 -a 0 -x {1.0 3.0 9 ------- null}
h -t 0.54073 -s 2 -d 3 -p cbr -e 210 -c 0 -i 19 -a 0 -x {1.0 3.0 -1 ------- null}
+ -t 0.54125 -s 1 -d 2 -p cbr -e 210 -c 0 -i 22 -a 0 -x {1.0 3.0 11 ------- null}
- -t 0.54125 -s 1 -d 2 -p cbr -e 210 -c 0 -i 22 -a 0 -x {1.0 3.0 11 ------- null}
h -t 0.54125 -s 1 -d 2 -p cbr -e 210 -c 0 -i 22 -a 0 -x {1.0 3.0 -1 ------- null}
- -t 0.54157 -s 2 -d 3 -p tcp -e 1040 -c 0 -i 17 -a 0 -x {0.0 3.1 5 ------- null}
h -t 0.54157 -s 2 -d 3 -p tcp -e 1040 -c 0 -i 17 -a 0 -x {0.0 3.1 -1 ------- null}
r -t 0.54205 -s 2 -d 0 -p ack -e 40 -c 0 -i 21 -a 0 -x {3.1 0.0 3 ------- null}
+ -t 0.54205 -s 0 -d 2 -p tcp -e 1040 -c 0 -i 23 -a 0 -x {0.0 3.1 7 ------- null}
- -t 0.54205 -s 0 -d 2 -p tcp -e 1040 -c 0 -i 23 -a 0 -x {0.0 3.1 7 ------- null}
h -t 0.54205 -s 0 -d 2 -p tcp -e 1040 -c 0 -i 23 -a 0 -x {0.0 3.1 -1 ------- null}
+ -t 0.54205 -s 0 -d 2 -p tcp -e 1040 -c 0 -i 24 -a 0 -x {0.0 3.1 8 ------- null}
r -t 0.54273 -s 2 -d 3 -p tcp -e 1040 -c 0 -i 13 -a 0 -x {0.0 3.1 4 ------- null}
+ -t 0.54273 -s 3 -d 2 -p ack -e 40 -c 0 -i 25 -a 0 -x {3.1 0.0 4 ------- null}
- -t 0.54273 -s 3 -d 2 -p ack -e 40 -c 0 -i 25 -a 0 -x {3.1 0.0 4 ------- null}
h -t 0.54273 -s 3 -d 2 -p ack -e 40 -c 0 -i 25 -a 0 -x {3.1 0.0 -1 ------- null}
r -t 0.54357 -s 2 -d 3 -p cbr -e 210 -c 0 -i 19 -a 0 -x {1.0 3.0 9 ------- null}
r -t 0.54405 -s 0 -d 2 -p tcp -e 1040 -c 0 -i 18 -a 0 -x {0.0 3.1 6 ------- null}
+ -t 0.54405 -s 2 -d 3 -p tcp -e 1040 -c 0 -i 18 -a 0 -x {0.0 3.1 6 ------- null}
r -t 0.54409 -s 1 -d 2 -p cbr -e 210 -c 0 -i 22 -a 0 -x {1.0 3.0 11 ------- null}
+ -t 0.54409 -s 2 -d 3 -p cbr -e 210 -c 0 -i 22 -a 0 -x {1.0 3.0 11 ------- null}
r -t 0.54489 -s 3 -d 2 -p ack -e 40 -c 0 -i 25 -a 0 -x {3.1 0.0 4 ------- null}
+ -t 0.54489 -s 2 -d 0 -p ack -e 40 -c 0 -i 25 -a 0 -x {3.1 0.0 4 ------- null}
- -t 0.54489 -s 2 -d 0 -p ack -e 40 -c 0 -i 25 -a 0 -x {3.1 0.0 4 ------- null}
h -t 0.54489 -s 2 -d 0 -p ack -e 40 -c 0 -i 25 -a 0 -x {3.1 0.0 -1 ------- null}
+ -t 0.545 -s 1 -d 2 -p cbr -e 210 -c 0 -i 26 -a 0 -x {1.0 3.0 12 ------- null}
- -t 0.545 -s 1 -d 2 -p cbr -e 210 -c 0 -i 26 -a 0 -x {1.0 3.0 12 ------- null}
h -t 0.545 -s 1 -d 2 -p cbr -e 210 -c 0 -i 26 -a 0 -x {1.0 3.0 -1 ------- null}
- -t 0.54573 -s 2 -d 3 -p cbr -e 210 -c 0 -i 20 -a 0 -x {1.0 3.0 10 ------- null}
h -t 0.54573 -s 2 -d 3 -p cbr -e 210 -c 0 -i 20 -a 0 -x {1.0 3.0 -1 ------- null}
- -t 0.54621 -s 0 -d 2 -p tcp -e 1040 -c 0 -i 24 -a 0 -x {0.0 3.1 8 ------- null}
h -t 0.54621 -s 0 -d 2 -p tcp -e 1040 -c 0 -i 24 -a 0 -x {0.0 3.1 -1 ------- null}
- -t 0.54657 -s 2 -d 3 -p tcp -e 1040 -c 0 -i 18 -a 0 -x {0.0 3.1 6 ------- null}
h -t 0.54657 -s 2 -d 3 -p tcp -e 1040 -c 0 -i 18 -a 0 -x {0.0 3.1 -1 ------- null}
r -t 0.54705 -s 2 -d 0 -p ack -e 40 -c 0 -i 25 -a 0 -x {3.1 0.0 4 ------- null}
+ -t 0.54705 -s 0 -d 2 -p tcp -e 1040 -c 0 -i 27 -a 0 -x {0.0 3.1 9 ------- null}
+ -t 0.54705 -s 0 -d 2 -p tcp -e 1040 -c 0 -i 28 -a 0 -x {0.0 3.1 10 ------- null}
r -t 0.54773 -s 2 -d 3 -p tcp -e 1040 -c 0 -i 17 -a 0 -x {0.0 3.1 5 ------- null}
+ -t 0.54773 -s 3 -d 2 -p ack -e 40 -c 0 -i 29 -a 0 -x {3.1 0.0 5 ------- null}
- -t 0.54773 -s 3 -d 2 -p ack -e 40 -c 0 -i 29 -a 0 -x {3.1 0.0 5 ------- null}
h -t 0.54773 -s 3 -d 2 -p ack -e 40 -c 0 -i 29 -a 0 -x {3.1 0.0 -1 ------- null}
r -t 0.54784 -s 1 -d 2 -p cbr -e 210 -c 0 -i 26 -a 0 -x {1.0 3.0 12 ------- null}
+ -t 0.54784 -s 2 -d 3 -p cbr -e 210 -c 0 -i 26 -a 0 -x {1.0 3.0 12 ------- null}
r -t 0.54821 -s 0 -d 2 -p tcp -e 1040 -c 0 -i 23 -a 0 -x {0.0 3.1 7 ------- null}
+ -t 0.54821 -s 2 -d 3 -p tcp -e 1040 -c 0 -i 23 -a 0 -x {0.0 3.1 7 ------- null}
r -t 0.54857 -s 2 -d 3 -p cbr -e 210 -c 0 -i 20 -a 0 -x {1.0 3.0 10 ------- null}
+ -t 0.54875 -s 1 -d 2 -p cbr -e 210 -c 0 -i 30 -a 0 -x {1.0 3.0 13 ------- null}
- -t 0.54875 -s 1 -d 2 -p cbr -e 210 -c 0 -i 30 -a 0 -x {1.0 3.0 13 ------- null}
h -t 0.54875 -s 1 -d 2 -p cbr -e 210 -c 0 -i 30 -a 0 -x {1.0 3.0 -1 ------- null}
r -t 0.54989 -s 3 -d 2 -p ack -e 40 -c 0 -i 29 -a 0 -x {3.1 0.0 5 ------- null}
+ -t 0.54989 -s 2 -d 0 -p ack -e 40 -c 0 -i 29 -a 0 -x {3.1 0.0 5 ------- null}
- -t 0.54989 -s 2 -d 0 -p ack -e 40 -c 0 -i 29 -a 0 -x {3.1 0.0 5 ------- null}
h -t 0.54989 -s 2 -d 0 -p ack -e 40 -c 0 -i 29 -a 0 -x {3.1 0.0 -1 ------- null}
- -t 0.55037 -s 0 -d 2 -p tcp -e 1040 -c 0 -i 27 -a 0 -x {0.0 3.1 9 ------- null}
h -t 0.55037 -s 0 -d 2 -p tcp -e 1040 -c 0 -i 27 -a 0 -x {0.0 3.1 -1 ------- null}
- -t 0.55073 -s 2 -d 3 -p cbr -e 210 -c 0 -i 22 -a 0 -x {1.0 3.0 11 ------- null}
h -t 0.55073 -s 2 -d 3 -p cbr -e 210 -c 0 -i 22 -a 0 -x {1.0 3.0 -1 ------- null}
- -t 0.55157 -s 2 -d 3 -p cbr -e 210 -c 0 -i 26 -a 0 -x {1.0 3.0 12 ------- null}
h -t 0.55157 -s 2 -d 3 -p cbr -e 210 -c 0 -i 26 -a 0 -x {1.0 3.0 -1 ------- null}
r -t 0.55159 -s 1 -d 2 -p cbr -e 210 -c 0 -i 30 -a 0 -x {1.0 3.0 13 ------- null}
+ -t 0.55159 -s 2 -d 3 -p cbr -e 210 -c 0 -i 30 -a 0 -x {1.0 3.0 13 ------- null}
r -t 0.55205 -s 2 -d 0 -p ack -e 40 -c 0 -i 29 -a 0 -x {3.1 0.0 5 ------- null}
+ -t 0.55205 -s 0 -d 2 -p tcp -e 1040 -c 0 -i 31 -a 0 -x {0.0 3.1 11 ------- null}
+ -t 0.55205 -s 0 -d 2 -p tcp -e 1040 -c 0 -i 32 -a 0 -x {0.0 3.1 12 ------- null}
r -t 0.55237 -s 0 -d 2 -p tcp -e 1040 -c 0 -i 24 -a 0 -x {0.0 3.1 8 ------- null}
+ -t 0.55237 -s 2 -d 3 -p tcp -e 1040 -c 0 -i 24 -a 0 -x {0.0 3.1 8 ------- null}
- -t 0.55241 -s 2 -d 3 -p tcp -e 1040 -c 0 -i 23 -a 0 -x {0.0 3.1 7 ------- null}
h -t 0.55241 -s 2 -d 3 -p tcp -e 1040 -c 0 -i 23 -a 0 -x {0.0 3.1 -1 ------- null}
+ -t 0.5525 -s 1 -d 2 -p cbr -e 210 -c 0 -i 33 -a 0 -x {1.0 3.0 14 ------- null}
- -t 0.5525 -s 1 -d 2 -p cbr -e 210 -c 0 -i 33 -a 0 -x {1.0 3.0 14 ------- null}
h -t 0.5525 -s 1 -d 2 -p cbr -e 210 -c 0 -i 33 -a 0 -x {1.0 3.0 -1 ------- null}
r -t 0.55273 -s 2 -d 3 -p tcp -e 1040 -c 0 -i 18 -a 0 -x {0.0 3.1 6 ------- null}
+ -t 0.55273 -s 3 -d 2 -p ack -e 40 -c 0 -i 34 -a 0 -x {3.1 0.0 6 ------- null}
- -t 0.55273 -s 3 -d 2 -p ack -e 40 -c 0 -i 34 -a 0 -x {3.1 0.0 6 ------- null}
h -t 0.55273 -s 3 -d 2 -p ack -e 40 -c 0 -i 34 -a 0 -x {3.1 0.0 -1 ------- null}
r -t 0.55357 -s 2 -d 3 -p cbr -e 210 -c 0 -i 22 -a 0 -x {1.0 3.0 11 ------- null}
r -t 0.55441 -s 2 -d 3 -p cbr -e 210 -c 0 -i 26 -a 0 -x {1.0 3.0 12 ------- null}
- -t 0.554530000000001 -s 0 -d 2 -p tcp -e 1040 -c 0 -i 28 -a 0 -x {0.0 3.1 10 ------- null}
h -t 0.554530000000001 -s 0 -d 2 -p tcp -e 1040 -c 0 -i 28 -a 0 -x {0.0 3.1 -1 ------- null}
r -t 0.55489 -s 3 -d 2 -p ack -e 40 -c 0 -i 34 -a 0 -x {3.1 0.0 6 ------- null}
+ -t 0.55489 -s 2 -d 0 -p ack -e 40 -c 0 -i 34 -a 0 -x {3.1 0.0 6 ------- null}
- -t 0.55489 -s 2 -d 0 -p ack -e 40 -c 0 -i 34 -a 0 -x {3.1 0.0 6 ------- null}
h -t 0.55489 -s 2 -d 0 -p ack -e 40 -c 0 -i 34 -a 0 -x {3.1 0.0 -1 ------- null}
r -t 0.55534 -s 1 -d 2 -p cbr -e 210 -c 0 -i 33 -a 0 -x {1.0 3.0 14 ------- null}
+ -t 0.55534 -s 2 -d 3 -p cbr -e 210 -c 0 -i 33 -a 0 -x {1.0 3.0 14 ------- null}
+ -t 0.55625 -s 1 -d 2 -p cbr -e 210 -c 0 -i 35 -a 0 -x {1.0 3.0 15 ------- null}
- -t 0.55625 -s 1 -d 2 -p cbr -e 210 -c 0 -i 35 -a 0 -x {1.0 3.0 15 ------- null}
h -t 0.55625 -s 1 -d 2 -p cbr -e 210 -c 0 -i 35 -a 0 -x {1.0 3.0 -1 ------- null}
r -t 0.556530000000001 -s 0 -d 2 -p tcp -e 1040 -c 0 -i 27 -a 0 -x {0.0 3.1 9 ------- null}
+ -t 0.556530000000001 -s 2 -d 3 -p tcp -e 1040 -c 0 -i 27 -a 0 -x {0.0 3.1 9 ------- null}
- -t 0.55657 -s 2 -d 3 -p cbr -e 210 -c 0 -i 30 -a 0 -x {1.0 3.0 13 ------- null}
h -t 0.55657 -s 2 -d 3 -p cbr -e 210 -c 0 -i 30 -a 0 -x {1.0 3.0 -1 ------- null}
r -t 0.55705 -s 2 -d 0 -p ack -e 40 -c 0 -i 34 -a 0 -x {3.1 0.0 6 ------- null}
+ -t 0.55705 -s 0 -d 2 -p tcp -e 1040 -c 0 -i 36 -a 0 -x {0.0 3.1 13 ------- null}
+ -t 0.55705 -s 0 -d 2 -p tcp -e 1040 -c 0 -i 37 -a 0 -x {0.0 3.1 14 ------- null}
- -t 0.55741 -s 2 -d 3 -p tcp -e 1040 -c 0 -i 24 -a 0 -x {0.0 3.1 8 ------- null}
h -t 0.55741 -s 2 -d 3 -p tcp -e 1040 -c 0 -i 24 -a 0 -x {0.0 3.1 -1 ------- null}
r -t 0.55857 -s 2 -d 3 -p tcp -e 1040 -c 0 -i 23 -a 0 -x {0.0 3.1 7 ------- null}
+ -t 0.55857 -s 3 -d 2 -p ack -e 40 -c 0 -i 38 -a 0 -x {3.1 0.0 7 ------- null}
- -t 0.55857 -s 3 -d 2 -p ack -e 40 -c 0 -i 38 -a 0 -x {3.1 0.0 7 ------- null}
h -t 0.55857 -s 3 -d 2 -p ack -e 40 -c 0 -i 38 -a 0 -x {3.1 0.0 -1 ------- null}
- -t 0.558690000000001 -s 0 -d 2 -p tcp -e 1040 -c 0 -i 31 -a 0 -x {0.0 3.1 11 ------- null}
h -t 0.558690000000001 -s 0 -d 2 -p tcp -e 1040 -c 0 -i 31 -a 0 -x {0.0 3.1 -1 ------- null}
r -t 0.55909 -s 1 -d 2 -p cbr -e 210 -c 0 -i 35 -a 0 -x {1.0 3.0 15 ------- null}
+ -t 0.55909 -s 2 -d 3 -p cbr -e 210 -c 0 -i 35 -a 0 -x {1.0 3.0 15 ------- null}
r -t 0.55941 -s 2 -d 3 -p cbr -e 210 -c 0 -i 30 -a 0 -x {1.0 3.0 13 ------- null}
+ -t 0.56 -s 1 -d 2 -p cbr -e 210 -c 0 -i 39 -a 0 -x {1.0 3.0 16 ------- null}
- -t 0.56 -s 1 -d 2 -p cbr -e 210 -c 0 -i 39 -a 0 -x {1.0 3.0 16 ------- null}
h -t 0.56 -s 1 -d 2 -p cbr -e 210 -c 0 -i 39 -a 0 -x {1.0 3.0 -1 ------- null}
r -t 0.560690000000001 -s 0 -d 2 -p tcp -e 1040 -c 0 -i 28 -a 0 -x {0.0 3.1 10 ------- null}
+ -t 0.560690000000001 -s 2 -d 3 -p tcp -e 1040 -c 0 -i 28 -a 0 -x {0.0 3.1 10 ------- null}
r -t 0.56073 -s 3 -d 2 -p ack -e 40 -c 0 -i 38 -a 0 -x {3.1 0.0 7 ------- null}
+ -t 0.56073 -s 2 -d 0 -p ack -e 40 -c 0 -i 38 -a 0 -x {3.1 0.0 7 ------- null}
- -t 0.56073 -s 2 -d 0 -p ack -e 40 -c 0 -i 38 -a 0 -x {3.1 0.0 7 ------- null}
h -t 0.56073 -s 2 -d 0 -p ack -e 40 -c 0 -i 38 -a 0 -x {3.1 0.0 -1 ------- null}
- -t 0.56157 -s 2 -d 3 -p cbr -e 210 -c 0 -i 33 -a 0 -x {1.0 3.0 14 ------- null}
h -t 0.56157 -s 2 -d 3 -p cbr -e 210 -c 0 -i 33 -a 0 -x {1.0 3.0 -1 ------- null}
- -t 0.56241 -s 2 -d 3 -p tcp -e 1040 -c 0 -i 27 -a 0 -x {0.0 3.1 9 ------- null}
h -t 0.56241 -s 2 -d 3 -p tcp -e 1040 -c 0 -i 27 -a 0 -x {0.0 3.1 -1 ------- null}
r -t 0.56284 -s 1 -d 2 -p cbr -e 210 -c 0 -i 39 -a 0 -x {1.0 3.0 16 ------- null}
+ -t 0.56284 -s 2 -d 3 -p cbr -e 210 -c 0 -i 39 -a 0 -x {1.0 3.0 16 ------- null}
- -t 0.562850000000001 -s 0 -d 2 -p tcp -e 1040 -c 0 -i 32 -a 0 -x {0.0 3.1 12 ------- null}
h -t 0.562850000000001 -s 0 -d 2 -p tcp -e 1040 -c 0 -i 32 -a 0 -x {0.0 3.1 -1 ------- null}
r -t 0.56289 -s 2 -d 0 -p ack -e 40 -c 0 -i 38 -a 0 -x {3.1 0.0 7 ------- null}
+ -t 0.56289 -s 0 -d 2 -p tcp -e 1040 -c 0 -i 40 -a 0 -x {0.0 3.1 15 ------- null}
+ -t 0.56289 -s 0 -d 2 -p tcp -e 1040 -c 0 -i 41 -a 0 -x {0.0 3.1 16 ------- null}
r -t 0.56357 -s 2 -d 3 -p tcp -e 1040 -c 0 -i 24 -a 0 -x {0.0 3.1 8 ------- null}
+ -t 0.56357 -s 3 -d 2 -p ack -e 40 -c 0 -i 42 -a 0 -x {3.1 0.0 8 ------- null}
- -t 0.56357 -s 3 -d 2 -p ack -e 40 -c 0 -i 42 -a 0 -x {3.1 0.0 8 ------- null}
h -t 0.56357 -s 3 -d 2 -p ack -e 40 -c 0 -i 42 -a 0 -x {3.1 0.0 -1 ------- null}
+ -t 0.563750000000001 -s 1 -d 2 -p cbr -e 210 -c 0 -i 43 -a 0 -x {1.0 3.0 17 ------- null}
- -t 0.563750000000001 -s 1 -d 2 -p cbr -e 210 -c 0 -i 43 -a 0 -x {1.0 3.0 17 ------- null}
h -t 0.563750000000001 -s 1 -d 2 -p cbr -e 210 -c 0 -i 43 -a 0 -x {1.0 3.0 -1 ------- null}
r -t 0.56441 -s 2 -d 3 -p cbr -e 210 -c 0 -i 33 -a 0 -x {1.0 3.0 14 ------- null}
r -t 0.564850000000001 -s 0 -d 2 -p tcp -e 1040 -c 0 -i 31 -a 0 -x {0.0 3.1 11 ------- null}
+ -t 0.564850000000001 -s 2 -d 3 -p tcp -e 1040 -c 0 -i 31 -a 0 -x {0.0 3.1 11 ------- null}
r -t 0.56573 -s 3 -d 2 -p ack -e 40 -c 0 -i 42 -a 0 -x {3.1 0.0 8 ------- null}
+ -t 0.56573 -s 2 -d 0 -p ack -e 40 -c 0 -i 42 -a 0 -x {3.1 0.0 8 ------- null}
- -t 0.56573 -s 2 -d 0 -p ack -e 40 -c 0 -i 42 -a 0 -x {3.1 0.0 8 ------- null}
h -t 0.56573 -s 2 -d 0 -p ack -e 40 -c 0 -i 42 -a 0 -x {3.1 0.0 -1 ------- null}
- -t 0.56657 -s 2 -d 3 -p cbr -e 210 -c 0 -i 35 -a 0 -x {1.0 3.0 15 ------- null}
h -t 0.56657 -s 2 -d 3 -p cbr -e 210 -c 0 -i 35 -a 0 -x {1.0 3.0 -1 ------- null}
r -t 0.56659 -s 1 -d 2 -p cbr -e 210 -c 0 -i 43 -a 0 -x {1.0 3.0 17 ------- null}
+ -t 0.56659 -s 2 -d 3 -p cbr -e 210 -c 0 -i 43 -a 0 -x {1.0 3.0 17 ------- null}
- -t 0.567010000000001 -s 0 -d 2 -p tcp -e 1040 -c 0 -i 36 -a 0 -x {0.0 3.1 13 ------- null}
h -t 0.567010000000001 -s 0 -d 2 -p tcp -e 1040 -c 0 -i 36 -a 0 -x {0.0 3.1 -1 ------- null}
- -t 0.56741 -s 2 -d 3 -p tcp -e 1040 -c 0 -i 28 -a 0 -x {0.0 3.1 10 ------- null}
h -t 0.56741 -s 2 -d 3 -p tcp -e 1040 -c 0 -i 28 -a 0 -x {0.0 3.1 -1 ------- null}
+ -t 0.567500000000001 -s 1 -d 2 -p cbr -e 210 -c 0 -i 44 -a 0 -x {1.0 3.0 18 ------- null}
- -t 0.567500000000001 -s 1 -d 2 -p cbr -e 210 -c 0 -i 44 -a 0 -x {1.0 3.0 18 ------- null}
h -t 0.567500000000001 -s 1 -d 2 -p cbr -e 210 -c 0 -i 44 -a 0 -x {1.0 3.0 -1 ------- null}
r -t 0.56789 -s 2 -d 0 -p ack -e 40 -c 0 -i 42 -a 0 -x {3.1 0.0 8 ------- null}
+ -t 0.56789 -s 0 -d 2 -p tcp -e 1040 -c 0 -i 45 -a 0 -x {0.0 3.1 17 ------- null}
+ -t 0.56789 -s 0 -d 2 -p tcp -e 1040 -c 0 -i 46 -a 0 -x {0.0 3.1 18 ------- null}
r -t 0.56857 -s 2 -d 3 -p tcp -e 1040 -c 0 -i 27 -a 0 -x {0.0 3.1 9 ------- null}
+ -t 0.56857 -s 3 -d 2 -p ack -e 40 -c 0 -i 47 -a 0 -x {3.1 0.0 9 ------- null}
- -t 0.56857 -s 3 -d 2 -p ack -e 40 -c 0 -i 47 -a 0 -x {3.1 0.0 9 ------- null}
h -t 0.56857 -s 3 -d 2 -p ack -e 40 -c 0 -i 47 -a 0 -x {3.1 0.0 -1 ------- null}
r -t 0.569010000000001 -s 0 -d 2 -p tcp -e 1040 -c 0 -i 32 -a 0 -x {0.0 3.1 12 ------- null}
+ -t 0.569010000000001 -s 2 -d 3 -p tcp -e 1040 -c 0 -i 32 -a 0 -x {0.0 3.1 12 ------- null}
r -t 0.56941 -s 2 -d 3 -p cbr -e 210 -c 0 -i 35 -a 0 -x {1.0 3.0 15 ------- null}
r -t 0.570340000000001 -s 1 -d 2 -p cbr -e 210 -c 0 -i 44 -a 0 -x {1.0 3.0 18 ------- null}
+ -t 0.570340000000001 -s 2 -d 3 -p cbr -e 210 -c 0 -i 44 -a 0 -x {1.0 3.0 18 ------- null}
r -t 0.57073 -s 3 -d 2 -p ack -e 40 -c 0 -i 47 -a 0 -x {3.1 0.0 9 ------- null}
+ -t 0.57073 -s 2 -d 0 -p ack -e 40 -c 0 -i 47 -a 0 -x {3.1 0.0 9 ------- null}
- -t 0.57073 -s 2 -d 0 -p ack -e 40 -c 0 -i 47 -a 0 -x {3.1 0.0 9 ------- null}
h -t 0.57073 -s 2 -d 0 -p ack -e 40 -c 0 -i 47 -a 0 -x {3.1 0.0 -1 ------- null}
- -t 0.571170000000001 -s 0 -d 2 -p tcp -e 1040 -c 0 -i 37 -a 0 -x {0.0 3.1 14 ------- null}
h -t 0.571170000000001 -s 0 -d 2 -p tcp -e 1040 -c 0 -i 37 -a 0 -x {0.0 3.1 -1 ------- null}
+ -t 0.571250000000001 -s 1 -d 2 -p cbr -e 210 -c 0 -i 48 -a 0 -x {1.0 3.0 19 ------- null}
- -t 0.571250000000001 -s 1 -d 2 -p cbr -e 210 -c 0 -i 48 -a 0 -x {1.0 3.0 19 ------- null}
h -t 0.571250000000001 -s 1 -d 2 -p cbr -e 210 -c 0 -i 48 -a 0 -x {1.0 3.0 -1 ------- null}
- -t 0.57157 -s 2 -d 3 -p cbr -e 210 -c 0 -i 39 -a 0 -x {1.0 3.0 16 ------- null}
h -t 0.57157 -s 2 -d 3 -p cbr -e 210 -c 0 -i 39 -a 0 -x {1.0 3.0 -1 ------- null}
- -t 0.57241 -s 2 -d 3 -p tcp -e 1040 -c 0 -i 31 -a 0 -x {0.0 3.1 11 ------- null}
h -t 0.57241 -s 2 -d 3 -p tcp -e 1040 -c 0 -i 31 -a 0 -x {0.0 3.1 -1 ------- null}
r -t 0.57289 -s 2 -d 0 -p ack -e 40 -c 0 -i 47 -a 0 -x {3.1 0.0 9 ------- null}
+ -t 0.57289 -s 0 -d 2 -p tcp -e 1040 -c 0 -i 49 -a 0 -x {0.0 3.1 19 ------- null}
+ -t 0.57289 -s 0 -d 2 -p tcp -e 1040 -c 0 -i 50 -a 0 -x {0.0 3.1 20 ------- null}
r -t 0.573170000000001 -s 0 -d 2 -p tcp -e 1040 -c 0 -i 36 -a 0 -x {0.0 3.1 13 ------- null}
+ -t 0.573170000000001 -s 2 -d 3 -p tcp -e 1040 -c 0 -i 36 -a 0 -x {0.0 3.1 13 ------- null}
r -t 0.57357 -s 2 -d 3 -p tcp -e 1040 -c 0 -i 28 -a 0 -x {0.0 3.1 10 ------- null}
+ -t 0.57357 -s 3 -d 2 -p ack -e 40 -c 0 -i 51 -a 0 -x {3.1 0.0 10 ------- null}
- -t 0.57357 -s 3 -d 2 -p ack -e 40 -c 0 -i 51 -a 0 -x {3.1 0.0 10 ------- null}
h -t 0.57357 -s 3 -d 2 -p ack -e 40 -c 0 -i 51 -a 0 -x {3.1 0.0 -1 ------- null}
r -t 0.574090000000001 -s 1 -d 2 -p cbr -e 210 -c 0 -i 48 -a 0 -x {1.0 3.0 19 ------- null}
+ -t 0.574090000000001 -s 2 -d 3 -p cbr -e 210 -c 0 -i 48 -a 0 -x {1.0 3.0 19 ------- null}
r -t 0.57441 -s 2 -d 3 -p cbr -e 210 -c 0 -i 39 -a 0 -x {1.0 3.0 16 ------- null}
+ -t 0.575000000000001 -s 1 -d 2 -p cbr -e 210 -c 0 -i 52 -a 0 -x {1.0 3.0 20 ------- null}
- -t 0.575000000000001 -s 1 -d 2 -p cbr -e 210 -c 0 -i 52 -a 0 -x {1.0 3.0 20 ------- null}
h -t 0.575000000000001 -s 1 -d 2 -p cbr -e 210 -c 0 -i 52 -a 0 -x {1.0 3.0 -1 ------- null}
- -t 0.575330000000001 -s 0 -d 2 -p tcp -e 1040 -c 0 -i 40 -a 0 -x {0.0 3.1 15 ------- null}
h -t 0.575330000000001 -s 0 -d 2 -p tcp -e 1040 -c 0 -i 40 -a 0 -x {0.0 3.1 -1 ------- null}
r -t 0.57573 -s 3 -d 2 -p ack -e 40 -c 0 -i 51 -a 0 -x {3.1 0.0 10 ------- null}
+ -t 0.57573 -s 2 -d 0 -p ack -e 40 -c 0 -i 51 -a 0 -x {3.1 0.0 10 ------- null}
- -t 0.57573 -s 2 -d 0 -p ack -e 40 -c 0 -i 51 -a 0 -x {3.1 0.0 10 ------- null}
h -t 0.57573 -s 2 -d 0 -p ack -e 40 -c 0 -i 51 -a 0 -x {3.1 0.0 -1 ------- null}
- -t 0.57657 -s 2 -d 3 -p cbr -e 210 -c 0 -i 43 -a 0 -x {1.0 3.0 17 ------- null}
h -t 0.57657 -s 2 -d 3 -p cbr -e 210 -c 0 -i 43 -a 0 -x {1.0 3.0 -1 ------- null}