+ 0.5 1 2 cbr 210 ------- 0 1.0 3.0 0 0
- 0.5 1 2 cbr 210 ------- 0 1.0 3.0 0 0
+ 0.5 0 2 tcp 40 ------- 0 0.0 3.1 0 1
- 0.5 0 2 tcp 40 ------- 0 0.0 3.1 0 1
r 0.50216 0 2 tcp 40 ------- 0 0.0 3.1 0 1
+ 0.50216 2 3 tcp 40 ------- 0 0.0 3.1 0 1
- 0.50216 2 3 tcp 40 ------- 0 0.0 3.1 0 1
r 0.50284 1 2 cbr 210 ------- 0 1.0 3.0 0 0
+ 0.50284 2 3 cbr 210 ------- 0 1.0 3.0 0 0
- 0.50284 2 3 cbr 210 ------- 0 1.0 3.0 0 0
+ 0.50375 1 2 cbr 210 ------- 0 1.0 3.0 1 2
- 0.50375 1 2 cbr 210 ------- 0 1.0 3.0 1 2
r 0.50432 2 3 tcp 40 ------- 0 0.0 3.1 0 1
+ 0.50432 3 2 ack 40 ------- 0 3.1 0.0 0 3
- 0.50432 3 2 ack 40 ------- 0 3.1 0.0 0 3
r 0.50568 2 3 cbr 210 ------- 0 1.0 3.0 0 0
r 0.50648 3 2 ack 40 ------- 0 3.1 0.0 0 3
+ 0.50648 2 0 ack 40 ------- 0 3.1 0.0 0 3
- 0.50648 2 0 ack 40 ------- 0 3.1 0.0 0 3
r 0.50659 1 2 cbr 210 ------- 0 1.0 3.0 1 2
+ 0.50659 2 3 cbr 210 ------- 0 1.0 3.0 1 2
- 0.50659 2 3 cbr 210 ------- 0 1.0 3.0 1 2
+ 0.5075 1 2 cbr 210 ------- 0 1.0 3.0 2 4
- 0.5075 1 2 cbr 210 ------- 0 1.0 3.0 2 4
r 0.50864 2 0 ack 40 ------- 0 3.1 0.0 0 3
+ 0.50864 0 2 tcp 1040 ------- 0 0.0 3.1 1 5
- 0.50864 0 2 tcp 1040 ------- 0 0.0 3.1 1 5
+ 0.50864 0 2 tcp 1040 ------- 0 0.0 3.1 2 6
r 0.50943 2 3 cbr 210 ------- 0 1.0 3.0 1 2
r 0.51034 1 2 cbr 210 ------- 0 1.0 3.0 2 4
+ 0.51034 2 3 cbr 210 ------- 0 1.0 3.0 2 4
- 0.51034 2 3 cbr 210 ------- 0 1.0 3.0 2 4
+ 0.51125 1 2 cbr 210 ------- 0 1.0 3.0 3 7
- 0.51125 1 2 cbr 210 ------- 0 1.0 3.0 3 7
- 0.5128 0 2 tcp 1040 ------- 0 0.0 3.1 2 6
r 0.51318 2 3 cbr 210 ------- 0 1.0 3.0 2 4
r 0.51409 1 2 cbr 210 ------- 0 1.0 3.0 3 7
+ 0.51409 2 3 cbr 210 ------- 0 1.0 3.0 3 7
- 0.51409 2 3 cbr 210 ------- 0 1.0 3.0 3 7
r 0.5148 0 2 tcp 1040 ------- 0 0.0 3.1 1 5
+ 0.5148 2 3 tcp 1040 ------- 0 0.0 3.1 1 5
- 0.51493 2 3 tcp 1040 ------- 0 0.0 3.1 1 5
+ 0.515 1 2 cbr 210 ------- 0 1.0 3.0 4 8
- 0.515 1 2 cbr 210 ------- 0 1.0 3.0 4 8
r 0.51693 2 3 cbr 210 ------- 0 1.0 3.0 3 7
r 0.51784 1 2 cbr 210 ------- 0 1.0 3.0 4 8
+ 0.51784 2 3 cbr 210 ------- 0 1.0 3.0 4 8
+ 0.51875 1 2 cbr 210 ------- 0 1.0 3.0 5 9
- 0.51875 1 2 cbr 210 ------- 0 1.0 3.0 5 9
r 0.51896 0 2 tcp 1040 ------- 0 0.0 3.1 2 6
+ 0.51896 2 3 tcp 1040 ------- 0 0.0 3.1 2 6
- 0.51909 2 3 cbr 210 ------- 0 1.0 3.0 4 8
- 0.51993 2 3 tcp 1040 ------- 0 0.0 3.1 2 6
r 0.52109 2 3 tcp 1040 ------- 0 0.0 3.1 1 5
+ 0.52109 3 2 ack 40 ------- 0 3.1 0.0 1 10
- 0.52109 3 2 ack 40 ------- 0 3.1 0.0 1 10
r 0.52159 1 2 cbr 210 ------- 0 1.0 3.0 5 9
+ 0.52159 2 3 cbr 210 ------- 0 1.0 3.0 5 9
r 0.52193 2 3 cbr 210 ------- 0 1.0 3.0 4 8
+ 0.5225 1 2 cbr 210 ------- 0 1.0 3.0 6 11
- 0.5225 1 2 cbr 210 ------- 0 1.0 3.0 6 11
r 0.52325 3 2 ack 40 ------- 0 3.1 0.0 1 10
+ 0.52325 2 0 ack 40 ------- 0 3.1 0.0 1 10
- 0.52325 2 0 ack 40 ------- 0 3.1 0.0 1 10
- 0.52409 2 3 cbr 210 ------- 0 1.0 3.0 5 9
r 0.52534 1 2 cbr 210 ------- 0 1.0 3.0 6 11
+ 0.52534 2 3 cbr 210 ------- 0 1.0 3.0 6 11
- 0.52534 2 3 cbr 210 ------- 0 1.0 3.0 6 11
r 0.52541 2 0 ack 40 ------- 0 3.1 0.0 1 10
+ 0.52541 0 2 tcp 1040 ------- 0 0.0 3.1 3 12
- 0.52541 0 2 tcp 1040 ------- 0 0.0 3.1 3 12
+ 0.52541 0 2 tcp 1040 ------- 0 0.0 3.1 4 13
r 0.52609 2 3 tcp 1040 ------- 0 0.0 3.1 2 6
+ 0.52609 3 2 ack 40 ------- 0 3.1 0.0 2 14
- 0.52609 3 2 ack 40 ------- 0 3.1 0.0 2 14
+ 0.52625 1 2 cbr 210 ------- 0 1.0 3.0 7 15
- 0.52625 1 2 cbr 210 ------- 0 1.0 3.0 7 15
r 0.52693 2 3 cbr 210 ------- 0 1.0 3.0 5 9
r 0.52818 2 3 cbr 210 ------- 0 1.0 3.0 6 11
r 0.52825 3 2 ack 40 ------- 0 3.1 0.0 2 14
+ 0.52825 2 0 ack 40 ------- 0 3.1 0.0 2 14
- 0.52825 2 0 ack 40 ------- 0 3.1 0.0 2 14
r 0.52909 1 2 cbr 210 ------- 0 1.0 3.0 7 15
+ 0.52909 2 3 cbr 210 ------- 0 1.0 3.0 7 15
- 0.52909 2 3 cbr 210 ------- 0 1.0 3.0 7 15
- 0.52957 0 2 tcp 1040 ------- 0 0.0 3.1 4 13
+ 0.53 1 2 cbr 210 ------- 0 1.0 3.0 8 16
- 0.53 1 2 cbr 210 ------- 0 1.0 3.0 8 16
r 0.53041 2 0 ack 40 ------- 0 3.1 0.0 2 14
+ 0.53041 0 2 tcp 1040 ------- 0 0.0 3.1 5 17
+ 0.53041 0 2 tcp 1040 ------- 0 0.0 3.1 6 18
r 0.53157 0 2 tcp 1040 ------- 0 0.0 3.1 3 12
+ 0.53157 2 3 tcp 1040 ------- 0 0.0 3.1 3 12
- 0.53157 2 3 tcp 1040 ------- 0 0.0 3.1 3 12
r 0.53193 2 3 cbr 210 ------- 0 1.0 3.0 7 15
r 0.53284 1 2 cbr 210 ------- 0 1.0 3.0 8 16
+ 0.53284 2 3 cbr 210 ------- 0 1.0 3.0 8 16
- 0.53373 0 2 tcp 1040 ------- 0 0.0 3.1 5 17
+ 0.53375 1 2 cbr 210 ------- 0 1.0 3.0 9 19
- 0.53375 1 2 cbr 210 ------- 0 1.0 3.0 9 19
r 0.53573 0 2 tcp 1040 ------- 0 0.0 3.1 4 13
+ 0.53573 2 3 tcp 1040 ------- 0 0.0 3.1 4 13
- 0.53573 2 3 cbr 210 ------- 0 1.0 3.0 8 16
- 0.53657 2 3 tcp 1040 ------- 0 0.0 3.1 4 13
r 0.53659 1 2 cbr 210 ------- 0 1.0 3.0 9 19
+ 0.53659 2 3 cbr 210 ------- 0 1.0 3.0 9 19
+ 0.5375 1 2 cbr 210 ------- 0 1.0 3.0 10 20
- 0.5375 1 2 cbr 210 ------- 0 1.0 3.0 10 20
r 0.53773 2 3 tcp 1040 ------- 0 0.0 3.1 3 12
+ 0.53773 3 2 ack 40 ------- 0 3.1 0.0 3 21
- 0.53773 3 2 ack 40 ------- 0 3.1 0.0 3 21
- 0.53789 0 2 tcp 1040 ------- 0 0.0 3.1 6 18
r 0.53857 2 3 cbr 210 ------- 0 1.0 3.0 8 16
r 0.53989 0 2 tcp 1040 ------- 0 0.0 3.1 5 17
+ 0.53989 2 3 tcp 1040 ------- 0 0.0 3.1 5 17
r 0.53989 3 2 ack 40 ------- 0 3.1 0.0 3 21
+ 0.53989 2 0 ack 40 ------- 0 3.1 0.0 3 21
- 0.53989 2 0 ack 40 ------- 0 3.1 0.0 3 21
r 0.54034 1 2 cbr 210 ------- 0 1.0 3.0 10 20
+ 0.54034 2 3 cbr 210 ------- 0 1.0 3.0 10 20
- 0.54073 2 3 cbr 210 ------- 0 1.0 3.0 9 19
+ 0.54125 1 2 cbr 210 ------- 0 1.0 3.0 11 22
- 0.54125 1 2 cbr 210 ------- 0 1.0 3.0 11 22
- 0.54157 2 3 tcp 1040 ------- 0 0.0 3.1 5 17
r 0.54205 2 0 ack 40 ------- 0 3.1 0.0 3 21
+ 0.54205 0 2 tcp 1040 ------- 0 0.0 3.1 7 23
- 0.54205 0 2 tcp 1040 ------- 0 0.0 3.1 7 23
+ 0.54205 0 2 tcp 1040 ------- 0 0.0 3.1 8 24
r 0.54273 2 3 tcp 1040 ------- 0 0.0 3.1 4 13
+ 0.54273 3 2 ack 40 ------- 0 3.1 0.0 4 25
- 0.54273 3 2 ack 40 ------- 0 3.1 0.0 4 25
r 0.54357 2 3 cbr 210 ------- 0 1.0 3.0 9 19
r 0.54405 0 2 tcp 1040 ------- 0 0.0 3.1 6 18
+ 0.54405 2 3 tcp 1040 ------- 0 0.0 3.1 6 18
r 0.54409 1 2 cbr 210 ------- 0 1.0 3.0 11 22
+ 0.54409 2 3 cbr 210 ------- 0 1.0 3.0 11 22
r 0.54489 3 2 ack 40 ------- 0 3.1 0.0 4 25
+ 0.54489 2 0 ack 40 ------- 0 3.1 0.0 4 25
- 0.54489 2 0 ack 40 ------- 0 3.1 0.0 4 25
+ 0.545 1 2 cbr 210 ------- 0 1.0 3.0 12 26
- 0.545 1 2 cbr 210 ------- 0 1.0 3.0 12 26
- 0.54573 2 3 cbr 210 ------- 0 1.0 3.0 10 20
- 0.54621 0 2 tcp 1040 ------- 0 0.0 3.1 8 24
- 0.54657 2 3 tcp 1040 ------- 0 0.0 3.1 6 18
r 0.54705 2 0 ack 40 ------- 0 3.1 0.0 4 25
+ 0.54705 0 2 tcp 1040 ------- 0 0.0 3.1 9 27
+ 0.54705 0 2 tcp 1040 ------- 0 0.0 3.1 10 28
r 0.54773 2 3 tcp 1040 ------- 0 0.0 3.1 5 17
+ 0.54773 3 2 ack 40 ------- 0 3.1 0.0 5 29
- 0.54773 3 2 ack 40 ------- 0 3.1 0.0 5 29
r 0.54784 1 2 cbr 210 ------- 0 1.0 3.0 12 26
+ 0.54784 2 3 cbr 210 ------- 0 1.0 3.0 12 26
r 0.54821 0 2 tcp 1040 ------- 0 0.0 3.1 7 23
+ 0.54821 2 3 tcp 1040 ------- 0 0.0 3.1 7 23
r 0.54857 2 3 cbr 210 ------- 0 1.0 3.0 10 20
+ 0.54875 1 2 cbr 210 ------- 0 1.0 3.0 13 30
- 0.54875 1 2 cbr 210 ------- 0 1.0 3.0 13 30
r 0.54989 3 2 ack 40 ------- 0 3.1 0.0 5 29
+ 0.54989 2 0 ack 40 ------- 0 3.1 0.0 5 29
- 0.54989 2 0 ack 40 ------- 0 3.1 0.0 5 29
- 0.55037 0 2 tcp 1040 ------- 0 0.0 3.1 9 27
- 0.55073 2 3 cbr 210 ------- 0 1.0 3.0 11 22
- 0.55157 2 3 cbr 210 ------- 0 1.0 3.0 12 26
r 0.55159 1 2 cbr 210 ------- 0 1.0 3.0 13 30
+ 0.55159 2 3 cbr 210 ------- 0 1.0 3.0 13 30
r 0.55205 2 0 ack 40 ------- 0 3.1 0.0 5 29
+ 0.55205 0 2 tcp 1040 ------- 0 0.0 3.1 11 31
+ 0.55205 0 2 tcp 1040 ------- 0 0.0 3.1 12 32
r 0.55237 0 2 tcp 1040 ------- 0 0.0 3.1 8 24
+ 0.55237 2 3 tcp 1040 ------- 0 0.0 3.1 8 24
- 0.55241 2 3 tcp 1040 ------- 0 0.0 3.1 7 23
+ 0.5525 1 2 cbr 210 ------- 0 1.0 3.0 14 33
- 0.5525 1 2 cbr 210 ------- 0 1.0 3.0 14 33
r 0.55273 2 3 tcp 1040 ------- 0 0.0 3.1 6 18
+ 0.55273 3 2 ack 40 ------- 0 3.1 0.0 6 34
- 0.55273 3 2 ack 40 ------- 0 3.1 0.0 6 34
r 0.55357 2 3 cbr 210 ------- 0 1.0 3.0 11 22
r 0.55441 2 3 cbr 210 ------- 0 1.0 3.0 12 26
- 0.55453 0 2 tcp 1040 ------- 0 0.0 3.1 10 28
r 0.55489 3 2 ack 40 ------- 0 3.1 0.0 6 34
+ 0.55489 2 0 ack 40 ------- 0 3.1 0.0 6 34
- 0.55489 2 0 ack 40 ------- 0 3.1 0.0 6 34
r 0.55534 1 2 cbr 210 ------- 0 1.0 3.0 14 33
+ 0.55534 2 3 cbr 210 ------- 0 1.0 3.0 14 33
+ 0.55625 1 2 cbr 210 ------- 0 1.0 3.0 15 35
- 0.55625 1 2 cbr 210 ------- 0 1.0 3.0 15 35
r 0.55653 0 2 tcp 1040 ------- 0 0.0 3.1 9 27
+ 0.55653 2 3 tcp 1040 ------- 0 0.0 3.1 9 27
- 0.55657 2 3 cbr 210 ------- 0 1.0 3.0 13 30
r 0.55705 2 0 ack 40 ------- 0 3.1 0.0 6 34
+ 0.55705 0 2 tcp 1040 ------- 0 0.0 3.1 13 36
+ 0.55705 0 2 tcp 1040 ------- 0 0.0 3.1 14 37
- 0.55741 2 3 tcp 1040 ------- 0 0.0 3.1 8 24
r 0.55857 2 3 tcp 1040 ------- 0 0.0 3.1 7 23
+ 0.55857 3 2 ack 40 ------- 0 3.1 0.0 7 38
- 0.55857 3 2 ack 40 ------- 0 3.1 0.0 7 38
- 0.55869 0 2 tcp 1040 ------- 0 0.0 3.1 11 31
r 0.55909 1 2 cbr 210 ------- 0 1.0 3.0 15 35
+ 0.55909 2 3 cbr 210 ------- 0 1.0 3.0 15 35
r 0.55941 2 3 cbr 210 ------- 0 1.0 3.0 13 30
+ 0.56 1 2 cbr 210 ------- 0 1.0 3.0 16 39
- 0.56 1 2 cbr 210 ------- 0 1.0 3.0 16 39
r 0.56069 0 2 tcp 1040 ------- 0 0.0 3.1 10 28
+ 0.56069 2 3 tcp 1040 ------- 0 0.0 3.1 10 28
r 0.56073 3 2 ack 40 ------- 0 3.1 0.0 7 38
+ 0.56073 2 0 ack 40 ------- 0 3.1 0.0 7 38
- 0.56073 2 0 ack 40 ------- 0 3.1 0.0 7 38
- 0.56157 2 3 cbr 210 ------- 0 1.0 3.0 14 33
- 0.56241 2 3 tcp 1040 ------- 0 0.0 3.1 9 27
r 0.56284 1 2 cbr 210 ------- 0 1.0 3.0 16 39
+ 0.56284 2 3 cbr 210 ------- 0 1.0 3.0 16 39
- 0.56285 0 2 tcp 1040 ------- 0 0.0 3.1 12 32
r 0.56289 2 0 ack 40 ------- 0 3.1 0.0 7 38
+ 0.56289 0 2 tcp 1040 ------- 0 0.0 3.1 15 40
+ 0.56289 0 2 tcp 1040 ------- 0 0.0 3.1 16 41
r 0.56357 2 3 tcp 1040 ------- 0 0.0 3.1 8 24
+ 0.56357 3 2 ack 40 ------- 0 3.1 0.0 8 42
- 0.56357 3 2 ack 40 ------- 0 3.1 0.0 8 42
+ 0.56375 1 2 cbr 210 ------- 0 1.0 3.0 17 43
- 0.56375 1 2 cbr 210 ------- 0 1.0 3.0 17 43
r 0.56441 2 3 cbr 210 ------- 0 1.0 3.0 14 33
r 0.56485 0 2 tcp 1040 ------- 0 0.0 3.1 11 31
+ 0.56485 2 3 tcp 1040 ------- 0 0.0 3.1 11 31
r 0.56573 3 2 ack 40 ------- 0 3.1 0.0 8 42
+ 0.56573 2 0 ack 40 ------- 0 3.1 0.0 8 42
- 0.56573 2 0 ack 40 ------- 0 3.1 0.0 8 42
- 0.56657 2 3 cbr 210 ------- 0 1.0 3.0 15 35
r 0.56659 1 2 cbr 210 ------- 0 1.0 3.0 17 43
+ 0.56659 2 3 cbr 210 ------- 0 1.0 3.0 17 43
- 0.56701 0 2 tcp 1040 ------- 0 0.0 3.1 13 36
- 0.56741 2 3 tcp 1040 ------- 0 0.0 3.1 10 28
+ 0.5675 1 2 cbr 210 ------- 0 1.0 3.0 18 44
- 0.5675 1 2 cbr 210 ------- 0 1.0 3.0 18 44
r 0.56789 2 0 ack 40 ------- 0 3.1 0.0 8 42
+ 0.56789 0 2 tcp 1040 ------- 0 0.0 3.1 17 45
+ 0.56789 0 2 tcp 1040 ------- 0 0.0 3.1 18 46
r 0.56857 2 3 tcp 1040 ------- 0 0.0 3.1 9 27
+ 0.56857 3 2 ack 40 ------- 0 3.1 0.0 9 47
- 0.56857 3 2 ack 40 ------- 0 3.1 0.0 9 47
r 0.56901 0 2 tcp 1040 ------- 0 0.0 3.1 12 32
+ 0.56901 2 3 tcp 1040 ------- 0 0.0 3.1 12 32
r 0.56941 2 3 cbr 210 ------- 0 1.0 3.0 15 35
r 0.57034 1 2 cbr 210 ------- 0 1.0 3.0 18 44
+ 0.57034 2 3 cbr 210 ------- 0 1.0 3.0 18 44
r 0.57073 3 2 ack 40 ------- 0 3.1 0.0 9 47
+ 0.57073 2 0 ack 40 ------- 0 3.1 0.0 9 47
- 0.57073 2 0 ack 40 ------- 0 3.1 0.0 9 47
- 0.57117 0 2 tcp 1040 ------- 0 0.0 3.1 14 37
+ 0.57125 1 2 cbr 210 ------- 0 1.0 3.0 19 48
- 0.57125 1 2 cbr 210 ------- 0 1.0 3.0 19 48
- 0.57157 2 3 cbr 210 ------- 0 1.0 3.0 16 39
- 0.57241 2 3 tcp 1040 ------- 0 0.0 3.1 11 31
r 0.57289 2 0 ack 40 ------- 0 3.1 0.0 9 47
+ 0.57289 0 2 tcp 1040 ------- 0 0.0 3.1 19 49
+ 0.57289 0 2 tcp 1040 ------- 0 0.0 3.1 20 50
r 0.57317 0 2 tcp 1040 ------- 0 0.0 3.1 13 36
+ 0.57317 2 3 tcp 1040 ------- 0 0.0 3.1 13 36
r 0.57357 2 3 tcp 1040 ------- 0 0.0 3.1 10 28
+ 0.57357 3 2 ack 40 ------- 0 3.1 0.0 10 51
- 0.57357 3 2 ack 40 ------- 0 3.1 0.0 10 51
r 0.57409 1 2 cbr 210 ------- 0 1.0 3.0 19 48
+ 0.57409 2 3 cbr 210 ------- 0 1.0 3.0 19 48
r 0.57441 2 3 cbr 210 ------- 0 1.0 3.0 16 39
+ 0.575 1 2 cbr 210 ------- 0 1.0 3.0 20 52
- 0.575 1 2 cbr 210 ------- 0 1.0 3.0 20 52
- 0.57533 0 2 tcp 1040 ------- 0 0.0 3.1 15 40
r 0.57573 3 2 ack 40 ------- 0 3.1 0.0 10 51
+ 0.57573 2 0 ack 40 ------- 0 3.1 0.0 10 51
- 0.57573 2 0 ack 40 ------- 0 3.1 0.0 10 51
- 0.57657 2 3 cbr 210 ------- 0 1.0 3.0 17 43
r 0.57733 0 2 tcp 1040 ------- 0 0.0 3.1 14 37
+ 0.57733 2 3 tcp 1040 ------- 0 0.0 3.1 14 37
- 0.57741 2 3 tcp 1040 ------- 0 0.0 3.1 12 32
r 0.57784 1 2 cbr 210 ------- 0 1.0 3.0 20 52
+ 0.57784 2 3 cbr 210 ------- 0 1.0 3.0 20 52
r 0.57789 2 0 ack 40 ------- 0 3.1 0.0 10 51
+ 0.57789 0 2 tcp 1040 ------- 0 0.0 3.1 21 53
+ 0.57789 0 2 tcp 1040 ------- 0 0.0 3.1 22 54
r 0.57857 2 3 tcp 1040 ------- 0 0.0 3.1 11 31
+ 0.57857 3 2 ack 40 ------- 0 3.1 0.0 11 55
- 0.57857 3 2 ack 40 ------- 0 3.1 0.0 11 55
+ 0.57875 1 2 cbr 210 ------- 0 1.0 3.0 21 56
- 0.57875 1 2 cbr 210 ------- 0 1.0 3.0 21 56
r 0.57941 2 3 cbr 210 ------- 0 1.0 3.0 17 43
- 0.57949 0 2 tcp 1040 ------- 0 0.0 3.1 16 41
r 0.58073 3 2 ack 40 ------- 0 3.1 0.0 11 55
+ 0.58073 2 0 ack 40 ------- 0 3.1 0.0 11 55
- 0.58073 2 0 ack 40 ------- 0 3.1 0.0 11 55
r 0.58149 0 2 tcp 1040 ------- 0 0.0 3.1 15 40
+ 0.58149 2 3 tcp 1040 ------- 0 0.0 3.1 15 40
- 0.58157 2 3 cbr 210 ------- 0 1.0 3.0 18 44
r 0.58159 1 2 cbr 210 ------- 0 1.0 3.0 21 56
+ 0.58159 2 3 cbr 210 ------- 0 1.0 3.0 21 56
- 0.58241 2 3 tcp 1040 ------- 0 0.0 3.1 13 36
+ 0.5825 1 2 cbr 210 ------- 0 1.0 3.0 22 57
- 0.5825 1 2 cbr 210 ------- 0 1.0 3.0 22 57
r 0.58289 2 0 ack 40 ------- 0 3.1 0.0 11 55
+ 0.58289 0 2 tcp 1040 ------- 0 0.0 3.1 23 58
+ 0.58289 0 2 tcp 1040 ------- 0 0.0 3.1 24 59
r 0.58357 2 3 tcp 1040 ------- 0 0.0 3.1 12 32
+ 0.58357 3 2 ack 40 ------- 0 3.1 0.0 12 60
- 0.58357 3 2 ack 40 ------- 0 3.1 0.0 12 60
- 0.58365 0 2 tcp 1040 ------- 0 0.0 3.1 17 45
r 0.58441 2 3 cbr 210 ------- 0 1.0 3.0 18 44
r 0.58534 1 2 cbr 210 ------- 0 1.0 3.0 22 57
+ 0.58534 2 3 cbr 210 ------- 0 1.0 3.0 22 57
r 0.58565 0 2 tcp 1040 ------- 0 0.0 3.1 16 41
+ 0.58565 2 3 tcp 1040 ------- 0 0.0 3.1 16 41
r 0.58573 3 2 ack 40 ------- 0 3.1 0.0 12 60
+ 0.58573 2 0 ack 40 ------- 0 3.1 0.0 12 60
- 0.58573 2 0 ack 40 ------- 0 3.1 0.0 12 60
+ 0.58625 1 2 cbr 210 ------- 0 1.0 3.0 23 61
- 0.58625 1 2 cbr 210 ------- 0 1.0 3.0 23 61
- 0.58657 2 3 cbr 210 ------- 0 1.0 3.0 19 48
- 0.58741 2 3 tcp 1040 ------- 0 0.0 3.1 14 37
- 0.58781 0 2 tcp 1040 ------- 0 0.0 3.1 18 46
r 0.58789 2 0 ack 40 ------- 0 3.1 0.0 12 60
+ 0.58789 0 2 tcp 1040 ------- 0 0.0 3.1 25 62
+ 0.58789 0 2 tcp 1040 ------- 0 0.0 3.1 26 63
r 0.58857 2 3 tcp 1040 ------- 0 0.0 3.1 13 36
+ 0.58857 3 2 ack 40 ------- 0 3.1 0.0 13 64
- 0.58857 3 2 ack 40 ------- 0 3.1 0.0 13 64
r 0.58909 1 2 cbr 210 ------- 0 1.0 3.0 23 61
+ 0.58909 2 3 cbr 210 ------- 0 1.0 3.0 23 61
r 0.58941 2 3 cbr 210 ------- 0 1.0 3.0 19 48
r 0.58981 0 2 tcp 1040 ------- 0 0.0 3.1 17 45
+ 0.58981 2 3 tcp 1040 ------- 0 0.0 3.1 17 45
+ 0.59 1 2 cbr 210 ------- 0 1.0 3.0 24 65
- 0.59 1 2 cbr 210 ------- 0 1.0 3.0 24 65
r 0.59073 3 2 ack 40 ------- 0 3.1 0.0 13 64
+ 0.59073 2 0 ack 40 ------- 0 3.1 0.0 13 64
- 0.59073 2 0 ack 40 ------- 0 3.1 0.0 13 64
- 0.59157 2 3 cbr 210 ------- 0 1.0 3.0 20 52
- 0.59197 0 2 tcp 1040 ------- 0 0.0 3.1 19 49
- 0.59241 2 3 tcp 1040 ------- 0 0.0 3.1 15 40
r 0.59284 1 2 cbr 210 ------- 0 1.0 3.0 24 65
+ 0.59284 2 3 cbr 210 ------- 0 1.0 3.0 24 65
r 0.59289 2 0 ack 40 ------- 0 3.1 0.0 13 64
+ 0.59289 0 2 tcp 1040 ------- 0 0.0 3.1 27 66
+ 0.59289 0 2 tcp 1040 ------- 0 0.0 3.1 28 67
r 0.59357 2 3 tcp 1040 ------- 0 0.0 3.1 14 37
+ 0.59357 3 2 ack 40 ------- 0 3.1 0.0 14 68
- 0.59357 3 2 ack 40 ------- 0 3.1 0.0 14 68
+ 0.59375 1 2 cbr 210 ------- 0 1.0 3.0 25 69
- 0.59375 1 2 cbr 210 ------- 0 1.0 3.0 25 69
r 0.59397 0 2 tcp 1040 ------- 0 0.0 3.1 18 46
+ 0.59397 2 3 tcp 1040 ------- 0 0.0 3.1 18 46
r 0.59441 2 3 cbr 210 ------- 0 1.0 3.0 20 52
r 0.59573 3 2 ack 40 ------- 0 3.1 0.0 14 68
+ 0.59573 2 0 ack 40 ------- 0 3.1 0.0 14 68
- 0.59573 2 0 ack 40 ------- 0 3.1 0.0 14 68
- 0.59613 0 2 tcp 1040 ------- 0 0.0 3.1 20 50
- 0.59657 2 3 cbr 210 ------- 0 1.0 3.0 21 56
r 0.59659 1 2 cbr 210 ------- 0 1.0 3.0 25 69
+ 0.59659 2 3 cbr 210 ------- 0 1.0 3.0 25 69
- 0.59741 2 3 cbr 210 ------- 0 1.0 3.0 22 57
+ 0.5975 1 2 cbr 210 ------- 0 1.0 3.0 26 70
- 0.5975 1 2 cbr 210 ------- 0 1.0 3.0 26 70
r 0.59789 2 0 ack 40 ------- 0 3.1 0.0 14 68
+ 0.59789 0 2 tcp 1040 ------- 0 0.0 3.1 29 71
+ 0.59789 0 2 tcp 1040 ------- 0 0.0 3.1 30 72
d 0.59789 0 2 tcp 1040 ------- 0 0.0 3.1 30 72
r 0.59813 0 2 tcp 1040 ------- 0 0.0 3.1 19 49
+ 0.59813 2 3 tcp 1040 ------- 0 0.0 3.1 19 49
- 0.59825 2 3 tcp 1040 ------- 0 0.0 3.1 16 41
r 0.59857 2 3 tcp 1040 ------- 0 0.0 3.1 15 40
+ 0.59857 3 2 ack 40 ------- 0 3.1 0.0 15 73
- 0.59857 3 2 ack 40 ------- 0 3.1 0.0 15 73
r 0.59941 2 3 cbr 210 ------- 0 1.0 3.0 21 56
r 0.60025 2 3 cbr 210 ------- 0 1.0 3.0 22 57
- 0.60029 0 2 tcp 1040 ------- 0 0.0 3.1 21 53
r 0.60034 1 2 cbr 210 ------- 0 1.0 3.0 26 70
+ 0.60034 2 3 cbr 210 ------- 0 1.0 3.0 26 70
r 0.60073 3 2 ack 40 ------- 0 3.1 0.0 15 73
+ 0.60073 2 0 ack 40 ------- 0 3.1 0.0 15 73
- 0.60073 2 0 ack 40 ------- 0 3.1 0.0 15 73
+ 0.60125 1 2 cbr 210 ------- 0 1.0 3.0 27 74
- 0.60125 1 2 cbr 210 ------- 0 1.0 3.0 27 74
r 0.60229 0 2 tcp 1040 ------- 0 0.0 3.1 20 50
+ 0.60229 2 3 tcp 1040 ------- 0 0.0 3.1 20 50
- 0.60241 2 3 cbr 210 ------- 0 1.0 3.0 23 61
r 0.60289 2 0 ack 40 ------- 0 3.1 0.0 15 73
+ 0.60289 0 2 tcp 1040 ------- 0 0.0 3.1 31 75
+ 0.60289 0 2 tcp 1040 ------- 0 0.0 3.1 32 76
d 0.60289 0 2 tcp 1040 ------- 0 0.0 3.1 32 76
- 0.60325 2 3 tcp 1040 ------- 0 0.0 3.1 17 45
r 0.60409 1 2 cbr 210 ------- 0 1.0 3.0 27 74
+ 0.60409 2 3 cbr 210 ------- 0 1.0 3.0 27 74
r 0.60441 2 3 tcp 1040 ------- 0 0.0 3.1 16 41
+ 0.60441 3 2 ack 40 ------- 0 3.1 0.0 16 77
- 0.60441 3 2 ack 40 ------- 0 3.1 0.0 16 77
- 0.60445 0 2 tcp 1040 ------- 0 0.0 3.1 22 54
+ 0.605 1 2 cbr 210 ------- 0 1.0 3.0 28 78
- 0.605 1 2 cbr 210 ------- 0 1.0 3.0 28 78
r 0.60525 2 3 cbr 210 ------- 0 1.0 3.0 23 61
r 0.60645 0 2 tcp 1040 ------- 0 0.0 3.1 21 53
+ 0.60645 2 3 tcp 1040 ------- 0 0.0 3.1 21 53
r 0.60657 3 2 ack 40 ------- 0 3.1 0.0 16 77
+ 0.60657 2 0 ack 40 ------- 0 3.1 0.0 16 77
- 0.60657 2 0 ack 40 ------- 0 3.1 0.0 16 77
- 0.60741 2 3 cbr 210 ------- 0 1.0 3.0 24 65
r 0.60784 1 2 cbr 210 ------- 0 1.0 3.0 28 78
+ 0.60784 2 3 cbr 210 ------- 0 1.0 3.0 28 78
- 0.60825 2 3 tcp 1040 ------- 0 0.0 3.1 18 46
- 0.60861 0 2 tcp 1040 ------- 0 0.0 3.1 23 58
r 0.60873 2 0 ack 40 ------- 0 3.1 0.0 16 77
+ 0.60873 0 2 tcp 1040 ------- 0 0.0 3.1 33 79
+ 0.60873 0 2 tcp 1040 ------- 0 0.0 3.1 34 80
+ 0.60875 1 2 cbr 210 ------- 0 1.0 3.0 29 81
- 0.60875 1 2 cbr 210 ------- 0 1.0 3.0 29 81
r 0.60941 2 3 tcp 1040 ------- 0 0.0 3.1 17 45
+ 0.60941 3 2 ack 40 ------- 0 3.1 0.0 17 82
- 0.60941 3 2 ack 40 ------- 0 3.1 0.0 17 82
r 0.61025 2 3 cbr 210 ------- 0 1.0 3.0 24 65
r 0.61061 0 2 tcp 1040 ------- 0 0.0 3.1 22 54
+ 0.61061 2 3 tcp 1040 ------- 0 0.0 3.1 22 54
r 0.61157 3 2 ack 40 ------- 0 3.1 0.0 17 82
+ 0.61157 2 0 ack 40 ------- 0 3.1 0.0 17 82
- 0.61157 2 0 ack 40 ------- 0 3.1 0.0 17 82
r 0.61159 1 2 cbr 210 ------- 0 1.0 3.0 29 81
+ 0.61159 2 3 cbr 210 ------- 0 1.0 3.0 29 81
- 0.61241 2 3 cbr 210 ------- 0 1.0 3.0 25 69
+ 0.6125 1 2 cbr 210 ------- 0 1.0 3.0 30 83
- 0.6125 1 2 cbr 210 ------- 0 1.0 3.0 30 83
- 0.61277 0 2 tcp 1040 ------- 0 0.0 3.1 24 59
- 0.61325 2 3 tcp 1040 ------- 0 0.0 3.1 19 49
r 0.61373 2 0 ack 40 ------- 0 3.1 0.0 17 82
+ 0.61373 0 2 tcp 1040 ------- 0 0.0 3.1 35 84
+ 0.61373 0 2 tcp 1040 ------- 0 0.0 3.1 36 85
d 0.61373 0 2 tcp 1040 ------- 0 0.0 3.1 36 85
r 0.61441 2 3 tcp 1040 ------- 0 0.0 3.1 18 46
+ 0.61441 3 2 ack 40 ------- 0 3.1 0.0 18 86
- 0.61441 3 2 ack 40 ------- 0 3.1 0.0 18 86
r 0.61477 0 2 tcp 1040 ------- 0 0.0 3.1 23 58
+ 0.61477 2 3 tcp 1040 ------- 0 0.0 3.1 23 58
r 0.61525 2 3 cbr 210 ------- 0 1.0 3.0 25 69
r 0.61534 1 2 cbr 210 ------- 0 1.0 3.0 30 83
+ 0.61534 2 3 cbr 210 ------- 0 1.0 3.0 30 83
+ 0.61625 1 2 cbr 210 ------- 0 1.0 3.0 31 87
- 0.61625 1 2 cbr 210 ------- 0 1.0 3.0 31 87
r 0.61657 3 2 ack 40 ------- 0 3.1 0.0 18 86
+ 0.61657 2 0 ack 40 ------- 0 3.1 0.0 18 86
- 0.61657 2 0 ack 40 ------- 0 3.1 0.0 18 86
- 0.61693 0 2 tcp 1040 ------- 0 0.0 3.1 25 62
- 0.61741 2 3 cbr 210 ------- 0 1.0 3.0 26 70
- 0.61825 2 3 tcp 1040 ------- 0 0.0 3.1 20 50
r 0.61873 2 0 ack 40 ------- 0 3.1 0.0 18 86
+ 0.61873 0 2 tcp 1040 ------- 0 0.0 3.1 37 88
+ 0.61873 0 2 tcp 1040 ------- 0 0.0 3.1 38 89
d 0.61873 0 2 tcp 1040 ------- 0 0.0 3.1 38 89
r 0.61893 0 2 tcp 1040 ------- 0 0.0 3.1 24 59
+ 0.61893 2 3 tcp 1040 ------- 0 0.0 3.1 24 59
r 0.61909 1 2 cbr 210 ------- 0 1.0 3.0 31 87
+ 0.61909 2 3 cbr 210 ------- 0 1.0 3.0 31 87
r 0.61941 2 3 tcp 1040 ------- 0 0.0 3.1 19 49
+ 0.61941 3 2 ack 40 ------- 0 3.1 0.0 19 90
- 0.61941 3 2 ack 40 ------- 0 3.1 0.0 19 90
+ 0.62 1 2 cbr 210 ------- 0 1.0 3.0 32 91
- 0.62 1 2 cbr 210 ------- 0 1.0 3.0 32 91
r 0.62025 2 3 cbr 210 ------- 0 1.0 3.0 26 70
- 0.62109 0 2 tcp 1040 ------- 0 0.0 3.1 26 63
r 0.62157 3 2 ack 40 ------- 0 3.1 0.0 19 90
+ 0.62157 2 0 ack 40 ------- 0 3.1 0.0 19 90
- 0.62157 2 0 ack 40 ------- 0 3.1 0.0 19 90
- 0.62241 2 3 cbr 210 ------- 0 1.0 3.0 27 74
r 0.62284 1 2 cbr 210 ------- 0 1.0 3.0 32 91
+ 0.62284 2 3 cbr 210 ------- 0 1.0 3.0 32 91
r 0.62309 0 2 tcp 1040 ------- 0 0.0 3.1 25 62
+ 0.62309 2 3 tcp 1040 ------- 0 0.0 3.1 25 62
- 0.62325 2 3 tcp 1040 ------- 0 0.0 3.1 21 53
r 0.62373 2 0 ack 40 ------- 0 3.1 0.0 19 90
+ 0.62373 0 2 tcp 1040 ------- 0 0.0 3.1 39 92
+ 0.62375 1 2 cbr 210 ------- 0 1.0 3.0 33 93
- 0.62375 1 2 cbr 210 ------- 0 1.0 3.0 33 93
r 0.62441 2 3 tcp 1040 ------- 0 0.0 3.1 20 50
+ 0.62441 3 2 ack 40 ------- 0 3.1 0.0 20 94
- 0.62441 3 2 ack 40 ------- 0 3.1 0.0 20 94
r 0.62525 2 3 cbr 210 ------- 0 1.0 3.0 27 74
- 0.62525 0 2 tcp 1040 ------- 0 0.0 3.1 27 66
r 0.62657 3 2 ack 40 ------- 0 3.1 0.0 20 94
+ 0.62657 2 0 ack 40 ------- 0 3.1 0.0 20 94
- 0.62657 2 0 ack 40 ------- 0 3.1 0.0 20 94
r 0.62659 1 2 cbr 210 ------- 0 1.0 3.0 33 93
+ 0.62659 2 3 cbr 210 ------- 0 1.0 3.0 33 93
r 0.62725 0 2 tcp 1040 ------- 0 0.0 3.1 26 63
+ 0.62725 2 3 tcp 1040 ------- 0 0.0 3.1 26 63
- 0.62741 2 3 cbr 210 ------- 0 1.0 3.0 28 78
+ 0.6275 1 2 cbr 210 ------- 0 1.0 3.0 34 95
- 0.6275 1 2 cbr 210 ------- 0 1.0 3.0 34 95
- 0.62825 2 3 tcp 1040 ------- 0 0.0 3.1 22 54
r 0.62873 2 0 ack 40 ------- 0 3.1 0.0 20 94
+ 0.62873 0 2 tcp 1040 ------- 0 0.0 3.1 40 96
r 0.62941 2 3 tcp 1040 ------- 0 0.0 3.1 21 53
+ 0.62941 3 2 ack 40 ------- 0 3.1 0.0 21 97
- 0.62941 3 2 ack 40 ------- 0 3.1 0.0 21 97
- 0.62941 0 2 tcp 1040 ------- 0 0.0 3.1 28 67
r 0.63025 2 3 cbr 210 ------- 0 1.0 3.0 28 78
r 0.63034 1 2 cbr 210 ------- 0 1.0 3.0 34 95
+ 0.63034 2 3 cbr 210 ------- 0 1.0 3.0 34 95
+ 0.63125 1 2 cbr 210 ------- 0 1.0 3.0 35 98
- 0.63125 1 2 cbr 210 ------- 0 1.0 3.0 35 98
r 0.63141 0 2 tcp 1040 ------- 0 0.0 3.1 27 66
+ 0.63141 2 3 tcp 1040 ------- 0 0.0 3.1 27 66
r 0.63157 3 2 ack 40 ------- 0 3.1 0.0 21 97
+ 0.63157 2 0 ack 40 ------- 0 3.1 0.0 21 97
- 0.63157 2 0 ack 40 ------- 0 3.1 0.0 21 97
- 0.63241 2 3 cbr 210 ------- 0 1.0 3.0 29 81
- 0.63325 2 3 tcp 1040 ------- 0 0.0 3.1 23 58
- 0.63357 0 2 tcp 1040 ------- 0 0.0 3.1 29 71
r 0.63373 2 0 ack 40 ------- 0 3.1 0.0 21 97
+ 0.63373 0 2 tcp 1040 ------- 0 0.0 3.1 41 99
r 0.63409 1 2 cbr 210 ------- 0 1.0 3.0 35 98
+ 0.63409 2 3 cbr 210 ------- 0 1.0 3.0 35 98
r 0.63441 2 3 tcp 1040 ------- 0 0.0 3.1 22 54
+ 0.63441 3 2 ack 40 ------- 0 3.1 0.0 22 100
- 0.63441 3 2 ack 40 ------- 0 3.1 0.0 22 100
+ 0.635 1 2 cbr 210 ------- 0 1.0 3.0 36 101
- 0.635 1 2 cbr 210 ------- 0 1.0 3.0 36 101
r 0.63525 2 3 cbr 210 ------- 0 1.0 3.0 29 81
r 0.63557 0 2 tcp 1040 ------- 0 0.0 3.1 28 67
+ 0.63557 2 3 tcp 1040 ------- 0 0.0 3.1 28 67
r 0.63657 3 2 ack 40 ------- 0 3.1 0.0 22 100
+ 0.63657 2 0 ack 40 ------- 0 3.1 0.0 22 100
- 0.63657 2 0 ack 40 ------- 0 3.1 0.0 22 100
- 0.63741 2 3 cbr 210 ------- 0 1.0 3.0 30 83
- 0.63773 0 2 tcp 1040 ------- 0 0.0 3.1 31 75
r 0.63784 1 2 cbr 210 ------- 0 1.0 3.0 36 101
+ 0.63784 2 3 cbr 210 ------- 0 1.0 3.0 36 101
- 0.63825 2 3 tcp 1040 ------- 0 0.0 3.1 24 59
r 0.63873 2 0 ack 40 ------- 0 3.1 0.0 22 100
+ 0.63873 0 2 tcp 1040 ------- 0 0.0 3.1 42 102
+ 0.63875 1 2 cbr 210 ------- 0 1.0 3.0 37 103
- 0.63875 1 2 cbr 210 ------- 0 1.0 3.0 37 103
r 0.63941 2 3 tcp 1040 ------- 0 0.0 3.1 23 58
+ 0.63941 3 2 ack 40 ------- 0 3.1 0.0 23 104
- 0.63941 3 2 ack 40 ------- 0 3.1 0.0 23 104
r 0.63973 0 2 tcp 1040 ------- 0 0.0 3.1 29 71
+ 0.63973 2 3 tcp 1040 ------- 0 0.0 3.1 29 71
r 0.64025 2 3 cbr 210 ------- 0 1.0 3.0 30 83
r 0.64157 3 2 ack 40 ------- 0 3.1 0.0 23 104
+ 0.64157 2 0 ack 40 ------- 0 3.1 0.0 23 104
- 0.64157 2 0 ack 40 ------- 0 3.1 0.0 23 104
r 0.64159 1 2 cbr 210 ------- 0 1.0 3.0 37 103
+ 0.64159 2 3 cbr 210 ------- 0 1.0 3.0 37 103
- 0.64189 0 2 tcp 1040 ------- 0 0.0 3.1 33 79
- 0.64241 2 3 cbr 210 ------- 0 1.0 3.0 31 87
+ 0.6425 1 2 cbr 210 ------- 0 1.0 3.0 38 105
- 0.6425 1 2 cbr 210 ------- 0 1.0 3.0 38 105
- 0.64325 2 3 cbr 210 ------- 0 1.0 3.0 32 91
r 0.64373 2 0 ack 40 ------- 0 3.1 0.0 23 104
+ 0.64373 0 2 tcp 1040 ------- 0 0.0 3.1 43 106
r 0.64389 0 2 tcp 1040 ------- 0 0.0 3.1 31 75
+ 0.64389 2 3 tcp 1040 ------- 0 0.0 3.1 31 75
- 0.64409 2 3 tcp 1040 ------- 0 0.0 3.1 25 62
r 0.64441 2 3 tcp 1040 ------- 0 0.0 3.1 24 59
+ 0.64441 3 2 ack 40 ------- 0 3.1 0.0 24 107
- 0.64441 3 2 ack 40 ------- 0 3.1 0.0 24 107
r 0.64525 2 3 cbr 210 ------- 0 1.0 3.0 31 87
r 0.64534 1 2 cbr 210 ------- 0 1.0 3.0 38 105
+ 0.64534 2 3 cbr 210 ------- 0 1.0 3.0 38 105
- 0.64605 0 2 tcp 1040 ------- 0 0.0 3.1 34 80
r 0.64609 2 3 cbr 210 ------- 0 1.0 3.0 32 91
+ 0.64625 1 2 cbr 210 ------- 0 1.0 3.0 39 108
- 0.64625 1 2 cbr 210 ------- 0 1.0 3.0 39 108
r 0.64657 3 2 ack 40 ------- 0 3.1 0.0 24 107
+ 0.64657 2 0 ack 40 ------- 0 3.1 0.0 24 107
- 0.64657 2 0 ack 40 ------- 0 3.1 0.0 24 107
r 0.64805 0 2 tcp 1040 ------- 0 0.0 3.1 33 79
+ 0.64805 2 3 tcp 1040 ------- 0 0.0 3.1 33 79
- 0.64825 2 3 cbr 210 ------- 0 1.0 3.0 33 93
r 0.64873 2 0 ack 40 ------- 0 3.1 0.0 24 107
+ 0.64873 0 2 tcp 1040 ------- 0 0.0 3.1 44 109
- 0.64909 2 3 tcp 1040 ------- 0 0.0 3.1 26 63
r 0.64909 1 2 cbr 210 ------- 0 1.0 3.0 39 108
+ 0.64909 2 3 cbr 210 ------- 0 1.0 3.0 39 108
+ 0.65 1 2 cbr 210 ------- 0 1.0 3.0 40 110
- 0.65 1 2 cbr 210 ------- 0 1.0 3.0 40 110
- 0.65021 0 2 tcp 1040 ------- 0 0.0 3.1 35 84
r 0.65025 2 3 tcp 1040 ------- 0 0.0 3.1 25 62
+ 0.65025 3 2 ack 40 ------- 0 3.1 0.0 25 111
- 0.65025 3 2 ack 40 ------- 0 3.1 0.0 25 111
r 0.65109 2 3 cbr 210 ------- 0 1.0 3.0 33 93
r 0.65221 0 2 tcp 1040 ------- 0 0.0 3.1 34 80
+ 0.65221 2 3 tcp 1040 ------- 0 0.0 3.1 34 80
r 0.65241 3 2 ack 40 ------- 0 3.1 0.0 25 111
+ 0.65241 2 0 ack 40 ------- 0 3.1 0.0 25 111
- 0.65241 2 0 ack 40 ------- 0 3.1 0.0 25 111
r 0.65284 1 2 cbr 210 ------- 0 1.0 3.0 40 110
+ 0.65284 2 3 cbr 210 ------- 0 1.0 3.0 40 110
- 0.65325 2 3 cbr 210 ------- 0 1.0 3.0 34 95
+ 0.65375 1 2 cbr 210 ------- 0 1.0 3.0 41 112
- 0.65375 1 2 cbr 210 ------- 0 1.0 3.0 41 112
- 0.65409 2 3 tcp 1040 ------- 0 0.0 3.1 27 66
- 0.65437 0 2 tcp 1040 ------- 0 0.0 3.1 37 88
r 0.65457 2 0 ack 40 ------- 0 3.1 0.0 25 111
+ 0.65457 0 2 tcp 1040 ------- 0 0.0 3.1 45 113
r 0.65525 2 3 tcp 1040 ------- 0 0.0 3.1 26 63
+ 0.65525 3 2 ack 40 ------- 0 3.1 0.0 26 114
- 0.65525 3 2 ack 40 ------- 0 3.1 0.0 26 114
r 0.65609 2 3 cbr 210 ------- 0 1.0 3.0 34 95
r 0.65637 0 2 tcp 1040 ------- 0 0.0 3.1 35 84
+ 0.65637 2 3 tcp 1040 ------- 0 0.0 3.1 35 84
r 0.65659 1 2 cbr 210 ------- 0 1.0 3.0 41 112
+ 0.65659 2 3 cbr 210 ------- 0 1.0 3.0 41 112
r 0.65741 3 2 ack 40 ------- 0 3.1 0.0 26 114
+ 0.65741 2 0 ack 40 ------- 0 3.1 0.0 26 114
- 0.65741 2 0 ack 40 ------- 0 3.1 0.0 26 114
+ 0.6575 1 2 cbr 210 ------- 0 1.0 3.0 42 115
- 0.6575 1 2 cbr 210 ------- 0 1.0 3.0 42 115
- 0.65825 2 3 cbr 210 ------- 0 1.0 3.0 35 98
- 0.65853 0 2 tcp 1040 ------- 0 0.0 3.1 39 92
- 0.65909 2 3 tcp 1040 ------- 0 0.0 3.1 28 67
r 0.65957 2 0 ack 40 ------- 0 3.1 0.0 26 114
+ 0.65957 0 2 tcp 1040 ------- 0 0.0 3.1 46 116
r 0.66025 2 3 tcp 1040 ------- 0 0.0 3.1 27 66
+ 0.66025 3 2 ack 40 ------- 0 3.1 0.0 27 117
- 0.66025 3 2 ack 40 ------- 0 3.1 0.0 27 117
r 0.66034 1 2 cbr 210 ------- 0 1.0 3.0 42 115
+ 0.66034 2 3 cbr 210 ------- 0 1.0 3.0 42 115
r 0.66053 0 2 tcp 1040 ------- 0 0.0 3.1 37 88
+ 0.66053 2 3 tcp 1040 ------- 0 0.0 3.1 37 88
r 0.66109 2 3 cbr 210 ------- 0 1.0 3.0 35 98
+ 0.66125 1 2 cbr 210 ------- 0 1.0 3.0 43 118
- 0.66125 1 2 cbr 210 ------- 0 1.0 3.0 43 118
r 0.66241 3 2 ack 40 ------- 0 3.1 0.0 27 117
+ 0.66241 2 0 ack 40 ------- 0 3.1 0.0 27 117
- 0.66241 2 0 ack 40 ------- 0 3.1 0.0 27 117
- 0.66269 0 2 tcp 1040 ------- 0 0.0 3.1 40 96
- 0.66325 2 3 cbr 210 ------- 0 1.0 3.0 36 101
- 0.66409 2 3 tcp 1040 ------- 0 0.0 3.1 29 71
r 0.66409 1 2 cbr 210 ------- 0 1.0 3.0 43 118
+ 0.66409 2 3 cbr 210 ------- 0 1.0 3.0 43 118
r 0.66457 2 0 ack 40 ------- 0 3.1 0.0 27 117
+ 0.66457 0 2 tcp 1040 ------- 0 0.0 3.1 47 119
r 0.66469 0 2 tcp 1040 ------- 0 0.0 3.1 39 92
+ 0.66469 2 3 tcp 1040 ------- 0 0.0 3.1 39 92
+ 0.665 1 2 cbr 210 ------- 0 1.0 3.0 44 120
- 0.665 1 2 cbr 210 ------- 0 1.0 3.0 44 120
r 0.66525 2 3 tcp 1040 ------- 0 0.0 3.1 28 67
+ 0.66525 3 2 ack 40 ------- 0 3.1 0.0 28 121
- 0.66525 3 2 ack 40 ------- 0 3.1 0.0 28 121
r 0.66609 2 3 cbr 210 ------- 0 1.0 3.0 36 101
- 0.66685 0 2 tcp 1040 ------- 0 0.0 3.1 41 99
r 0.66741 3 2 ack 40 ------- 0 3.1 0.0 28 121
+ 0.66741 2 0 ack 40 ------- 0 3.1 0.0 28 121
- 0.66741 2 0 ack 40 ------- 0 3.1 0.0 28 121
r 0.66784 1 2 cbr 210 ------- 0 1.0 3.0 44 120
+ 0.66784 2 3 cbr 210 ------- 0 1.0 3.0 44 120
- 0.66825 2 3 cbr 210 ------- 0 1.0 3.0 37 103
+ 0.66875 1 2 cbr 210 ------- 0 1.0 3.0 45 122
- 0.66875 1 2 cbr 210 ------- 0 1.0 3.0 45 122
r 0.66885 0 2 tcp 1040 ------- 0 0.0 3.1 40 96
+ 0.66885 2 3 tcp 1040 ------- 0 0.0 3.1 40 96
- 0.66909 2 3 tcp 1040 ------- 0 0.0 3.1 31 75
r 0.66957 2 0 ack 40 ------- 0 3.1 0.0 28 121
+ 0.66957 0 2 tcp 1040 ------- 0 0.0 3.1 48 123