V -t * -v 1.0a5 -a 0
A -t * -n 1 -p 0 -o 0x7fffffff -c 30 -a 1
A -t * -h 1 -m 1073741823 -s 0
n -t * -a 4 -s 4 -S UP -v circle -c black -i black
n -t * -a 0 -s 0 -S UP -v circle -c black -i black
n -t * -a 5 -s 5 -S UP -v circle -c black -i black
n -t * -a 1 -s 1 -S UP -v circle -c black -i black
n -t * -a 2 -s 2 -S UP -v circle -c black -i black
n -t * -a 3 -s 3 -S UP -v circle -c black -i black
l -t * -s 0 -d 1 -S UP -r 2000000 -D 0.002 -c black -o right-up
l -t * -s 1 -d 4 -S UP -r 2000000 -D 0.002 -c black -o right
l -t * -s 4 -d 5 -S UP -r 2000000 -D 0.002 -c black -o right-down
l -t * -s 5 -d 3 -S UP -r 2000000 -D 0.002 -c black -o left-down
l -t * -s 3 -d 2 -S UP -r 2000000 -D 0.002 -c black -o left
l -t * -s 2 -d 0 -S UP -r 2000000 -D 0.002 -c black -o left-up
l -t * -s 2 -d 1 -S UP -r 2000000 -D 0.002 -c black -o up
l -t * -s 3 -d 4 -S UP -r 2000000 -D 0.002 -c black -o up
+ -t 0.000169788487334637 -s 0 -d 1 -p rtProtoDV -e 6 -c 0 -i 0 -a 0 -x {0.2 1.1 -1 ------- null}
- -t 0.000169788487334637 -s 0 -d 1 -p rtProtoDV -e 6 -c 0 -i 0 -a 0 -x {0.2 1.1 -1 ------- null}
h -t 0.000169788487334637 -s 0 -d 1 -p rtProtoDV -e 6 -c 0 -i 0 -a 0 -x {0.2 1.1 -1 ------- null}
+ -t 0.000169788487334637 -s 0 -d 2 -p rtProtoDV -e 6 -c 0 -i 1 -a 0 -x {0.2 2.1 -1 ------- null}
- -t 0.000169788487334637 -s 0 -d 2 -p rtProtoDV -e 6 -c 0 -i 1 -a 0 -x {0.2 2.1 -1 ------- null}
h -t 0.000169788487334637 -s 0 -d 2 -p rtProtoDV -e 6 -c 0 -i 1 -a 0 -x {0.2 2.1 -1 ------- null}
r -t 0.00219378848733464 -s 0 -d 1 -p rtProtoDV -e 6 -c 0 -i 0 -a 0 -x {0.2 1.1 -1 ------- null}
r -t 0.00219378848733464 -s 0 -d 2 -p rtProtoDV -e 6 -c 0 -i 1 -a 0 -x {0.2 2.1 -1 ------- null}
+ -t 0.00710233021858257 -s 2 -d 0 -p rtProtoDV -e 6 -c 0 -i 2 -a 0 -x {2.1 0.2 -1 ------- null}
- -t 0.00710233021858257 -s 2 -d 0 -p rtProtoDV -e 6 -c 0 -i 2 -a 0 -x {2.1 0.2 -1 ------- null}
h -t 0.00710233021858257 -s 2 -d 0 -p rtProtoDV -e 6 -c 0 -i 2 -a 0 -x {2.1 0.2 -1 ------- null}
+ -t 0.00710233021858257 -s 2 -d 1 -p rtProtoDV -e 6 -c 0 -i 3 -a 0 -x {2.1 1.1 -1 ------- null}
- -t 0.00710233021858257 -s 2 -d 1 -p rtProtoDV -e 6 -c 0 -i 3 -a 0 -x {2.1 1.1 -1 ------- null}
h -t 0.00710233021858257 -s 2 -d 1 -p rtProtoDV -e 6 -c 0 -i 3 -a 0 -x {2.1 1.1 -1 ------- null}
+ -t 0.00710233021858257 -s 2 -d 3 -p rtProtoDV -e 6 -c 0 -i 4 -a 0 -x {2.1 3.1 -1 ------- null}
- -t 0.00710233021858257 -s 2 -d 3 -p rtProtoDV -e 6 -c 0 -i 4 -a 0 -x {2.1 3.1 -1 ------- null}
h -t 0.00710233021858257 -s 2 -d 3 -p rtProtoDV -e 6 -c 0 -i 4 -a 0 -x {2.1 3.1 -1 ------- null}
r -t 0.00912633021858257 -s 2 -d 0 -p rtProtoDV -e 6 -c 0 -i 2 -a 0 -x {2.1 0.2 -1 ------- null}
+ -t 0.00912633021858257 -s 0 -d 1 -p rtProtoDV -e 6 -c 0 -i 5 -a 0 -x {0.2 1.1 -1 ------- null}
- -t 0.00912633021858257 -s 0 -d 1 -p rtProtoDV -e 6 -c 0 -i 5 -a 0 -x {0.2 1.1 -1 ------- null}
h -t 0.00912633021858257 -s 0 -d 1 -p rtProtoDV -e 6 -c 0 -i 5 -a 0 -x {0.2 1.1 -1 ------- null}
+ -t 0.00912633021858257 -s 0 -d 2 -p rtProtoDV -e 6 -c 0 -i 6 -a 0 -x {0.2 2.1 -1 ------- null}
- -t 0.00912633021858257 -s 0 -d 2 -p rtProtoDV -e 6 -c 0 -i 6 -a 0 -x {0.2 2.1 -1 ------- null}
h -t 0.00912633021858257 -s 0 -d 2 -p rtProtoDV -e 6 -c 0 -i 6 -a 0 -x {0.2 2.1 -1 ------- null}
r -t 0.00912633021858257 -s 2 -d 1 -p rtProtoDV -e 6 -c 0 -i 3 -a 0 -x {2.1 1.1 -1 ------- null}
+ -t 0.00912633021858257 -s 1 -d 0 -p rtProtoDV -e 6 -c 0 -i 7 -a 0 -x {1.1 0.2 -1 ------- null}
- -t 0.00912633021858257 -s 1 -d 0 -p rtProtoDV -e 6 -c 0 -i 7 -a 0 -x {1.1 0.2 -1 ------- null}
h -t 0.00912633021858257 -s 1 -d 0 -p rtProtoDV -e 6 -c 0 -i 7 -a 0 -x {1.1 0.2 -1 ------- null}
+ -t 0.00912633021858257 -s 1 -d 2 -p rtProtoDV -e 6 -c 0 -i 8 -a 0 -x {1.1 2.1 -1 ------- null}
- -t 0.00912633021858257 -s 1 -d 2 -p rtProtoDV -e 6 -c 0 -i 8 -a 0 -x {1.1 2.1 -1 ------- null}
h -t 0.00912633021858257 -s 1 -d 2 -p rtProtoDV -e 6 -c 0 -i 8 -a 0 -x {1.1 2.1 -1 ------- null}
+ -t 0.00912633021858257 -s 1 -d 4 -p rtProtoDV -e 6 -c 0 -i 9 -a 0 -x {1.1 4.1 -1 ------- null}
- -t 0.00912633021858257 -s 1 -d 4 -p rtProtoDV -e 6 -c 0 -i 9 -a 0 -x {1.1 4.1 -1 ------- null}
h -t 0.00912633021858257 -s 1 -d 4 -p rtProtoDV -e 6 -c 0 -i 9 -a 0 -x {1.1 4.1 -1 ------- null}
r -t 0.00912633021858257 -s 2 -d 3 -p rtProtoDV -e 6 -c 0 -i 4 -a 0 -x {2.1 3.1 -1 ------- null}
+ -t 0.00912633021858257 -s 3 -d 2 -p rtProtoDV -e 6 -c 0 -i 10 -a 0 -x {3.1 2.1 -1 ------- null}
- -t 0.00912633021858257 -s 3 -d 2 -p rtProtoDV -e 6 -c 0 -i 10 -a 0 -x {3.1 2.1 -1 ------- null}
h -t 0.00912633021858257 -s 3 -d 2 -p rtProtoDV -e 6 -c 0 -i 10 -a 0 -x {3.1 2.1 -1 ------- null}
+ -t 0.00912633021858257 -s 3 -d 4 -p rtProtoDV -e 6 -c 0 -i 11 -a 0 -x {3.1 4.1 -1 ------- null}
- -t 0.00912633021858257 -s 3 -d 4 -p rtProtoDV -e 6 -c 0 -i 11 -a 0 -x {3.1 4.1 -1 ------- null}
h -t 0.00912633021858257 -s 3 -d 4 -p rtProtoDV -e 6 -c 0 -i 11 -a 0 -x {3.1 4.1 -1 ------- null}
+ -t 0.00912633021858257 -s 3 -d 5 -p rtProtoDV -e 6 -c 0 -i 12 -a 0 -x {3.1 5.2 -1 ------- null}
- -t 0.00912633021858257 -s 3 -d 5 -p rtProtoDV -e 6 -c 0 -i 12 -a 0 -x {3.1 5.2 -1 ------- null}
h -t 0.00912633021858257 -s 3 -d 5 -p rtProtoDV -e 6 -c 0 -i 12 -a 0 -x {3.1 5.2 -1 ------- null}
r -t 0.0111503302185826 -s 0 -d 1 -p rtProtoDV -e 6 -c 0 -i 5 -a 0 -x {0.2 1.1 -1 ------- null}
r -t 0.0111503302185826 -s 0 -d 2 -p rtProtoDV -e 6 -c 0 -i 6 -a 0 -x {0.2 2.1 -1 ------- null}
r -t 0.0111503302185826 -s 1 -d 0 -p rtProtoDV -e 6 -c 0 -i 7 -a 0 -x {1.1 0.2 -1 ------- null}
+ -t 0.0111503302185826 -s 0 -d 1 -p rtProtoDV -e 6 -c 0 -i 13 -a 0 -x {0.2 1.1 -1 ------- null}
- -t 0.0111503302185826 -s 0 -d 1 -p rtProtoDV -e 6 -c 0 -i 13 -a 0 -x {0.2 1.1 -1 ------- null}
h -t 0.0111503302185826 -s 0 -d 1 -p rtProtoDV -e 6 -c 0 -i 13 -a 0 -x {0.2 1.1 -1 ------- null}
+ -t 0.0111503302185826 -s 0 -d 2 -p rtProtoDV -e 6 -c 0 -i 14 -a 0 -x {0.2 2.1 -1 ------- null}
- -t 0.0111503302185826 -s 0 -d 2 -p rtProtoDV -e 6 -c 0 -i 14 -a 0 -x {0.2 2.1 -1 ------- null}
h -t 0.0111503302185826 -s 0 -d 2 -p rtProtoDV -e 6 -c 0 -i 14 -a 0 -x {0.2 2.1 -1 ------- null}
r -t 0.0111503302185826 -s 1 -d 2 -p rtProtoDV -e 6 -c 0 -i 8 -a 0 -x {1.1 2.1 -1 ------- null}
+ -t 0.0111503302185826 -s 2 -d 0 -p rtProtoDV -e 6 -c 0 -i 15 -a 0 -x {2.1 0.2 -1 ------- null}
- -t 0.0111503302185826 -s 2 -d 0 -p rtProtoDV -e 6 -c 0 -i 15 -a 0 -x {2.1 0.2 -1 ------- null}
h -t 0.0111503302185826 -s 2 -d 0 -p rtProtoDV -e 6 -c 0 -i 15 -a 0 -x {2.1 0.2 -1 ------- null}
+ -t 0.0111503302185826 -s 2 -d 1 -p rtProtoDV -e 6 -c 0 -i 16 -a 0 -x {2.1 1.1 -1 ------- null}
- -t 0.0111503302185826 -s 2 -d 1 -p rtProtoDV -e 6 -c 0 -i 16 -a 0 -x {2.1 1.1 -1 ------- null}
h -t 0.0111503302185826 -s 2 -d 1 -p rtProtoDV -e 6 -c 0 -i 16 -a 0 -x {2.1 1.1 -1 ------- null}
+ -t 0.0111503302185826 -s 2 -d 3 -p rtProtoDV -e 6 -c 0 -i 17 -a 0 -x {2.1 3.1 -1 ------- null}
- -t 0.0111503302185826 -s 2 -d 3 -p rtProtoDV -e 6 -c 0 -i 17 -a 0 -x {2.1 3.1 -1 ------- null}
h -t 0.0111503302185826 -s 2 -d 3 -p rtProtoDV -e 6 -c 0 -i 17 -a 0 -x {2.1 3.1 -1 ------- null}
r -t 0.0111503302185826 -s 1 -d 4 -p rtProtoDV -e 6 -c 0 -i 9 -a 0 -x {1.1 4.1 -1 ------- null}
+ -t 0.0111503302185826 -s 4 -d 1 -p rtProtoDV -e 6 -c 0 -i 18 -a 0 -x {4.1 1.1 -1 ------- null}
- -t 0.0111503302185826 -s 4 -d 1 -p rtProtoDV -e 6 -c 0 -i 18 -a 0 -x {4.1 1.1 -1 ------- null}
h -t 0.0111503302185826 -s 4 -d 1 -p rtProtoDV -e 6 -c 0 -i 18 -a 0 -x {4.1 1.1 -1 ------- null}
+ -t 0.0111503302185826 -s 4 -d 3 -p rtProtoDV -e 6 -c 0 -i 19 -a 0 -x {4.1 3.1 -1 ------- null}
- -t 0.0111503302185826 -s 4 -d 3 -p rtProtoDV -e 6 -c 0 -i 19 -a 0 -x {4.1 3.1 -1 ------- null}
h -t 0.0111503302185826 -s 4 -d 3 -p rtProtoDV -e 6 -c 0 -i 19 -a 0 -x {4.1 3.1 -1 ------- null}
+ -t 0.0111503302185826 -s 4 -d 5 -p rtProtoDV -e 6 -c 0 -i 20 -a 0 -x {4.1 5.2 -1 ------- null}
- -t 0.0111503302185826 -s 4 -d 5 -p rtProtoDV -e 6 -c 0 -i 20 -a 0 -x {4.1 5.2 -1 ------- null}
h -t 0.0111503302185826 -s 4 -d 5 -p rtProtoDV -e 6 -c 0 -i 20 -a 0 -x {4.1 5.2 -1 ------- null}
r -t 0.0111503302185826 -s 3 -d 2 -p rtProtoDV -e 6 -c 0 -i 10 -a 0 -x {3.1 2.1 -1 ------- null}
+ -t 0.0111503302185826 -s 2 -d 0 -p rtProtoDV -e 6 -c 0 -i 21 -a 0 -x {2.1 0.2 -1 ------- null}
+ -t 0.0111503302185826 -s 2 -d 1 -p rtProtoDV -e 6 -c 0 -i 22 -a 0 -x {2.1 1.1 -1 ------- null}
+ -t 0.0111503302185826 -s 2 -d 3 -p rtProtoDV -e 6 -c 0 -i 23 -a 0 -x {2.1 3.1 -1 ------- null}
r -t 0.0111503302185826 -s 3 -d 4 -p rtProtoDV -e 6 -c 0 -i 11 -a 0 -x {3.1 4.1 -1 ------- null}
r -t 0.0111503302185826 -s 3 -d 5 -p rtProtoDV -e 6 -c 0 -i 12 -a 0 -x {3.1 5.2 -1 ------- null}
+ -t 0.0111503302185826 -s 5 -d 3 -p rtProtoDV -e 6 -c 0 -i 24 -a 0 -x {5.2 3.1 -1 ------- null}
- -t 0.0111503302185826 -s 5 -d 3 -p rtProtoDV -e 6 -c 0 -i 24 -a 0 -x {5.2 3.1 -1 ------- null}
h -t 0.0111503302185826 -s 5 -d 3 -p rtProtoDV -e 6 -c 0 -i 24 -a 0 -x {5.2 3.1 -1 ------- null}
+ -t 0.0111503302185826 -s 5 -d 4 -p rtProtoDV -e 6 -c 0 -i 25 -a 0 -x {5.2 4.1 -1 ------- null}
- -t 0.0111503302185826 -s 5 -d 4 -p rtProtoDV -e 6 -c 0 -i 25 -a 0 -x {5.2 4.1 -1 ------- null}
h -t 0.0111503302185826 -s 5 -d 4 -p rtProtoDV -e 6 -c 0 -i 25 -a 0 -x {5.2 4.1 -1 ------- null}
- -t 0.0111743302185826 -s 2 -d 0 -p rtProtoDV -e 6 -c 0 -i 21 -a 0 -x {2.1 0.2 -1 ------- null}
h -t 0.0111743302185826 -s 2 -d 0 -p rtProtoDV -e 6 -c 0 -i 21 -a 0 -x {2.1 0.2 -1 ------- null}
- -t 0.0111743302185826 -s 2 -d 1 -p rtProtoDV -e 6 -c 0 -i 22 -a 0 -x {2.1 1.1 -1 ------- null}
h -t 0.0111743302185826 -s 2 -d 1 -p rtProtoDV -e 6 -c 0 -i 22 -a 0 -x {2.1 1.1 -1 ------- null}
- -t 0.0111743302185826 -s 2 -d 3 -p rtProtoDV -e 6 -c 0 -i 23 -a 0 -x {2.1 3.1 -1 ------- null}
h -t 0.0111743302185826 -s 2 -d 3 -p rtProtoDV -e 6 -c 0 -i 23 -a 0 -x {2.1 3.1 -1 ------- null}
r -t 0.0131743302185826 -s 0 -d 1 -p rtProtoDV -e 6 -c 0 -i 13 -a 0 -x {0.2 1.1 -1 ------- null}
r -t 0.0131743302185826 -s 0 -d 2 -p rtProtoDV -e 6 -c 0 -i 14 -a 0 -x {0.2 2.1 -1 ------- null}
r -t 0.0131743302185826 -s 2 -d 0 -p rtProtoDV -e 6 -c 0 -i 15 -a 0 -x {2.1 0.2 -1 ------- null}
r -t 0.0131743302185826 -s 2 -d 1 -p rtProtoDV -e 6 -c 0 -i 16 -a 0 -x {2.1 1.1 -1 ------- null}
r -t 0.0131743302185826 -s 2 -d 3 -p rtProtoDV -e 6 -c 0 -i 17 -a 0 -x {2.1 3.1 -1 ------- null}
r -t 0.0131743302185826 -s 4 -d 1 -p rtProtoDV -e 6 -c 0 -i 18 -a 0 -x {4.1 1.1 -1 ------- null}
+ -t 0.0131743302185826 -s 1 -d 0 -p rtProtoDV -e 6 -c 0 -i 26 -a 0 -x {1.1 0.2 -1 ------- null}
- -t 0.0131743302185826 -s 1 -d 0 -p rtProtoDV -e 6 -c 0 -i 26 -a 0 -x {1.1 0.2 -1 ------- null}
h -t 0.0131743302185826 -s 1 -d 0 -p rtProtoDV -e 6 -c 0 -i 26 -a 0 -x {1.1 0.2 -1 ------- null}
+ -t 0.0131743302185826 -s 1 -d 2 -p rtProtoDV -e 6 -c 0 -i 27 -a 0 -x {1.1 2.1 -1 ------- null}
- -t 0.0131743302185826 -s 1 -d 2 -p rtProtoDV -e 6 -c 0 -i 27 -a 0 -x {1.1 2.1 -1 ------- null}
h -t 0.0131743302185826 -s 1 -d 2 -p rtProtoDV -e 6 -c 0 -i 27 -a 0 -x {1.1 2.1 -1 ------- null}
+ -t 0.0131743302185826 -s 1 -d 4 -p rtProtoDV -e 6 -c 0 -i 28 -a 0 -x {1.1 4.1 -1 ------- null}
- -t 0.0131743302185826 -s 1 -d 4 -p rtProtoDV -e 6 -c 0 -i 28 -a 0 -x {1.1 4.1 -1 ------- null}
h -t 0.0131743302185826 -s 1 -d 4 -p rtProtoDV -e 6 -c 0 -i 28 -a 0 -x {1.1 4.1 -1 ------- null}
r -t 0.0131743302185826 -s 4 -d 3 -p rtProtoDV -e 6 -c 0 -i 19 -a 0 -x {4.1 3.1 -1 ------- null}
r -t 0.0131743302185826 -s 4 -d 5 -p rtProtoDV -e 6 -c 0 -i 20 -a 0 -x {4.1 5.2 -1 ------- null}
+ -t 0.0131743302185826 -s 5 -d 3 -p rtProtoDV -e 6 -c 0 -i 29 -a 0 -x {5.2 3.1 -1 ------- null}
- -t 0.0131743302185826 -s 5 -d 3 -p rtProtoDV -e 6 -c 0 -i 29 -a 0 -x {5.2 3.1 -1 ------- null}
h -t 0.0131743302185826 -s 5 -d 3 -p rtProtoDV -e 6 -c 0 -i 29 -a 0 -x {5.2 3.1 -1 ------- null}
+ -t 0.0131743302185826 -s 5 -d 4 -p rtProtoDV -e 6 -c 0 -i 30 -a 0 -x {5.2 4.1 -1 ------- null}
- -t 0.0131743302185826 -s 5 -d 4 -p rtProtoDV -e 6 -c 0 -i 30 -a 0 -x {5.2 4.1 -1 ------- null}
h -t 0.0131743302185826 -s 5 -d 4 -p rtProtoDV -e 6 -c 0 -i 30 -a 0 -x {5.2 4.1 -1 ------- null}
r -t 0.0131743302185826 -s 5 -d 3 -p rtProtoDV -e 6 -c 0 -i 24 -a 0 -x {5.2 3.1 -1 ------- null}
r -t 0.0131743302185826 -s 5 -d 4 -p rtProtoDV -e 6 -c 0 -i 25 -a 0 -x {5.2 4.1 -1 ------- null}
r -t 0.0131983302185826 -s 2 -d 0 -p rtProtoDV -e 6 -c 0 -i 21 -a 0 -x {2.1 0.2 -1 ------- null}
+ -t 0.0131983302185826 -s 0 -d 1 -p rtProtoDV -e 6 -c 0 -i 31 -a 0 -x {0.2 1.1 -1 ------- null}
- -t 0.0131983302185826 -s 0 -d 1 -p rtProtoDV -e 6 -c 0 -i 31 -a 0 -x {0.2 1.1 -1 ------- null}
h -t 0.0131983302185826 -s 0 -d 1 -p rtProtoDV -e 6 -c 0 -i 31 -a 0 -x {0.2 1.1 -1 ------- null}
+ -t 0.0131983302185826 -s 0 -d 2 -p rtProtoDV -e 6 -c 0 -i 32 -a 0 -x {0.2 2.1 -1 ------- null}
- -t 0.0131983302185826 -s 0 -d 2 -p rtProtoDV -e 6 -c 0 -i 32 -a 0 -x {0.2 2.1 -1 ------- null}
h -t 0.0131983302185826 -s 0 -d 2 -p rtProtoDV -e 6 -c 0 -i 32 -a 0 -x {0.2 2.1 -1 ------- null}
r -t 0.0131983302185826 -s 2 -d 1 -p rtProtoDV -e 6 -c 0 -i 22 -a 0 -x {2.1 1.1 -1 ------- null}
r -t 0.0131983302185826 -s 2 -d 3 -p rtProtoDV -e 6 -c 0 -i 23 -a 0 -x {2.1 3.1 -1 ------- null}
r -t 0.0151983302185826 -s 1 -d 0 -p rtProtoDV -e 6 -c 0 -i 26 -a 0 -x {1.1 0.2 -1 ------- null}
r -t 0.0151983302185826 -s 1 -d 2 -p rtProtoDV -e 6 -c 0 -i 27 -a 0 -x {1.1 2.1 -1 ------- null}
r -t 0.0151983302185826 -s 1 -d 4 -p rtProtoDV -e 6 -c 0 -i 28 -a 0 -x {1.1 4.1 -1 ------- null}
r -t 0.0151983302185826 -s 5 -d 3 -p rtProtoDV -e 6 -c 0 -i 29 -a 0 -x {5.2 3.1 -1 ------- null}
r -t 0.0151983302185826 -s 5 -d 4 -p rtProtoDV -e 6 -c 0 -i 30 -a 0 -x {5.2 4.1 -1 ------- null}
r -t 0.0152223302185826 -s 0 -d 1 -p rtProtoDV -e 6 -c 0 -i 31 -a 0 -x {0.2 1.1 -1 ------- null}
r -t 0.0152223302185826 -s 0 -d 2 -p rtProtoDV -e 6 -c 0 -i 32 -a 0 -x {0.2 2.1 -1 ------- null}
+ -t 0.04406133552271 -s 3 -d 2 -p rtProtoDV -e 6 -c 0 -i 33 -a 0 -x {3.1 2.1 -1 ------- null}
- -t 0.04406133552271 -s 3 -d 2 -p rtProtoDV -e 6 -c 0 -i 33 -a 0 -x {3.1 2.1 -1 ------- null}
h -t 0.04406133552271 -s 3 -d 2 -p rtProtoDV -e 6 -c 0 -i 33 -a 0 -x {3.1 2.1 -1 ------- null}
+ -t 0.04406133552271 -s 3 -d 4 -p rtProtoDV -e 6 -c 0 -i 34 -a 0 -x {3.1 4.1 -1 ------- null}
- -t 0.04406133552271 -s 3 -d 4 -p rtProtoDV -e 6 -c 0 -i 34 -a 0 -x {3.1 4.1 -1 ------- null}
h -t 0.04406133552271 -s 3 -d 4 -p rtProtoDV -e 6 -c 0 -i 34 -a 0 -x {3.1 4.1 -1 ------- null}
+ -t 0.04406133552271 -s 3 -d 5 -p rtProtoDV -e 6 -c 0 -i 35 -a 0 -x {3.1 5.2 -1 ------- null}
- -t 0.04406133552271 -s 3 -d 5 -p rtProtoDV -e 6 -c 0 -i 35 -a 0 -x {3.1 5.2 -1 ------- null}
h -t 0.04406133552271 -s 3 -d 5 -p rtProtoDV -e 6 -c 0 -i 35 -a 0 -x {3.1 5.2 -1 ------- null}
r -t 0.04608533552271 -s 3 -d 2 -p rtProtoDV -e 6 -c 0 -i 33 -a 0 -x {3.1 2.1 -1 ------- null}
r -t 0.04608533552271 -s 3 -d 4 -p rtProtoDV -e 6 -c 0 -i 34 -a 0 -x {3.1 4.1 -1 ------- null}
r -t 0.04608533552271 -s 3 -d 5 -p rtProtoDV -e 6 -c 0 -i 35 -a 0 -x {3.1 5.2 -1 ------- null}
+ -t 0.22058669092161 -s 4 -d 1 -p rtProtoDV -e 6 -c 0 -i 36 -a 0 -x {4.1 1.1 -1 ------- null}
- -t 0.22058669092161 -s 4 -d 1 -p rtProtoDV -e 6 -c 0 -i 36 -a 0 -x {4.1 1.1 -1 ------- null}
h -t 0.22058669092161 -s 4 -d 1 -p rtProtoDV -e 6 -c 0 -i 36 -a 0 -x {4.1 1.1 -1 ------- null}
+ -t 0.22058669092161 -s 4 -d 3 -p rtProtoDV -e 6 -c 0 -i 37 -a 0 -x {4.1 3.1 -1 ------- null}
- -t 0.22058669092161 -s 4 -d 3 -p rtProtoDV -e 6 -c 0 -i 37 -a 0 -x {4.1 3.1 -1 ------- null}
h -t 0.22058669092161 -s 4 -d 3 -p rtProtoDV -e 6 -c 0 -i 37 -a 0 -x {4.1 3.1 -1 ------- null}
+ -t 0.22058669092161 -s 4 -d 5 -p rtProtoDV -e 6 -c 0 -i 38 -a 0 -x {4.1 5.2 -1 ------- null}
- -t 0.22058669092161 -s 4 -d 5 -p rtProtoDV -e 6 -c 0 -i 38 -a 0 -x {4.1 5.2 -1 ------- null}
h -t 0.22058669092161 -s 4 -d 5 -p rtProtoDV -e 6 -c 0 -i 38 -a 0 -x {4.1 5.2 -1 ------- null}
r -t 0.22261069092161 -s 4 -d 1 -p rtProtoDV -e 6 -c 0 -i 36 -a 0 -x {4.1 1.1 -1 ------- null}
r -t 0.22261069092161 -s 4 -d 3 -p rtProtoDV -e 6 -c 0 -i 37 -a 0 -x {4.1 3.1 -1 ------- null}
r -t 0.22261069092161 -s 4 -d 5 -p rtProtoDV -e 6 -c 0 -i 38 -a 0 -x {4.1 5.2 -1 ------- null}
+ -t 0.277940357931862 -s 1 -d 0 -p rtProtoDV -e 6 -c 0 -i 39 -a 0 -x {1.1 0.2 -1 ------- null}
- -t 0.277940357931862 -s 1 -d 0 -p rtProtoDV -e 6 -c 0 -i 39 -a 0 -x {1.1 0.2 -1 ------- null}
h -t 0.277940357931862 -s 1 -d 0 -p rtProtoDV -e 6 -c 0 -i 39 -a 0 -x {1.1 0.2 -1 ------- null}
+ -t 0.277940357931862 -s 1 -d 2 -p rtProtoDV -e 6 -c 0 -i 40 -a 0 -x {1.1 2.1 -1 ------- null}
- -t 0.277940357931862 -s 1 -d 2 -p rtProtoDV -e 6 -c 0 -i 40 -a 0 -x {1.1 2.1 -1 ------- null}
h -t 0.277940357931862 -s 1 -d 2 -p rtProtoDV -e 6 -c 0 -i 40 -a 0 -x {1.1 2.1 -1 ------- null}
+ -t 0.277940357931862 -s 1 -d 4 -p rtProtoDV -e 6 -c 0 -i 41 -a 0 -x {1.1 4.1 -1 ------- null}
- -t 0.277940357931862 -s 1 -d 4 -p rtProtoDV -e 6 -c 0 -i 41 -a 0 -x {1.1 4.1 -1 ------- null}
h -t 0.277940357931862 -s 1 -d 4 -p rtProtoDV -e 6 -c 0 -i 41 -a 0 -x {1.1 4.1 -1 ------- null}
r -t 0.279964357931862 -s 1 -d 0 -p rtProtoDV -e 6 -c 0 -i 39 -a 0 -x {1.1 0.2 -1 ------- null}
r -t 0.279964357931862 -s 1 -d 2 -p rtProtoDV -e 6 -c 0 -i 40 -a 0 -x {1.1 2.1 -1 ------- null}
r -t 0.279964357931862 -s 1 -d 4 -p rtProtoDV -e 6 -c 0 -i 41 -a 0 -x {1.1 4.1 -1 ------- null}
+ -t 0.399577726796073 -s 5 -d 3 -p rtProtoDV -e 6 -c 0 -i 42 -a 0 -x {5.2 3.1 -1 ------- null}
- -t 0.399577726796073 -s 5 -d 3 -p rtProtoDV -e 6 -c 0 -i 42 -a 0 -x {5.2 3.1 -1 ------- null}
h -t 0.399577726796073 -s 5 -d 3 -p rtProtoDV -e 6 -c 0 -i 42 -a 0 -x {5.2 3.1 -1 ------- null}
+ -t 0.399577726796073 -s 5 -d 4 -p rtProtoDV -e 6 -c 0 -i 43 -a 0 -x {5.2 4.1 -1 ------- null}
- -t 0.399577726796073 -s 5 -d 4 -p rtProtoDV -e 6 -c 0 -i 43 -a 0 -x {5.2 4.1 -1 ------- null}
h -t 0.399577726796073 -s 5 -d 4 -p rtProtoDV -e 6 -c 0 -i 43 -a 0 -x {5.2 4.1 -1 ------- null}
r -t 0.401601726796073 -s 5 -d 3 -p rtProtoDV -e 6 -c 0 -i 42 -a 0 -x {5.2 3.1 -1 ------- null}
r -t 0.401601726796073 -s 5 -d 4 -p rtProtoDV -e 6 -c 0 -i 43 -a 0 -x {5.2 4.1 -1 ------- null}
+ -t 0.5 -s 0 -d 2 -p tcp -e 40 -c 0 -i 44 -a 0 -x {0.0 5.0 0 ------- null}
- -t 0.5 -s 0 -d 2 -p tcp -e 40 -c 0 -i 44 -a 0 -x {0.0 5.0 0 ------- null}
h -t 0.5 -s 0 -d 2 -p tcp -e 40 -c 0 -i 44 -a 0 -x {0.0 5.0 -1 ------- null}
r -t 0.50216 -s 0 -d 2 -p tcp -e 40 -c 0 -i 44 -a 0 -x {0.0 5.0 0 ------- null}
+ -t 0.50216 -s 2 -d 3 -p tcp -e 40 -c 0 -i 44 -a 0 -x {0.0 5.0 0 ------- null}
- -t 0.50216 -s 2 -d 3 -p tcp -e 40 -c 0 -i 44 -a 0 -x {0.0 5.0 0 ------- null}
h -t 0.50216 -s 2 -d 3 -p tcp -e 40 -c 0 -i 44 -a 0 -x {0.0 5.0 -1 ------- null}
r -t 0.50432 -s 2 -d 3 -p tcp -e 40 -c 0 -i 44 -a 0 -x {0.0 5.0 0 ------- null}
+ -t 0.50432 -s 3 -d 5 -p tcp -e 40 -c 0 -i 44 -a 0 -x {0.0 5.0 0 ------- null}
- -t 0.50432 -s 3 -d 5 -p tcp -e 40 -c 0 -i 44 -a 0 -x {0.0 5.0 0 ------- null}
h -t 0.50432 -s 3 -d 5 -p tcp -e 40 -c 0 -i 44 -a 0 -x {0.0 5.0 -1 ------- null}
r -t 0.50648 -s 3 -d 5 -p tcp -e 40 -c 0 -i 44 -a 0 -x {0.0 5.0 0 ------- null}
+ -t 0.50648 -s 5 -d 3 -p ack -e 40 -c 0 -i 45 -a 0 -x {5.0 0.0 0 ------- null}
- -t 0.50648 -s 5 -d 3 -p ack -e 40 -c 0 -i 45 -a 0 -x {5.0 0.0 0 ------- null}
h -t 0.50648 -s 5 -d 3 -p ack -e 40 -c 0 -i 45 -a 0 -x {5.0 0.0 -1 ------- null}
r -t 0.50864 -s 5 -d 3 -p ack -e 40 -c 0 -i 45 -a 0 -x {5.0 0.0 0 ------- null}
+ -t 0.50864 -s 3 -d 2 -p ack -e 40 -c 0 -i 45 -a 0 -x {5.0 0.0 0 ------- null}
- -t 0.50864 -s 3 -d 2 -p ack -e 40 -c 0 -i 45 -a 0 -x {5.0 0.0 0 ------- null}
h -t 0.50864 -s 3 -d 2 -p ack -e 40 -c 0 -i 45 -a 0 -x {5.0 0.0 -1 ------- null}
r -t 0.5108 -s 3 -d 2 -p ack -e 40 -c 0 -i 45 -a 0 -x {5.0 0.0 0 ------- null}
+ -t 0.5108 -s 2 -d 0 -p ack -e 40 -c 0 -i 45 -a 0 -x {5.0 0.0 0 ------- null}
- -t 0.5108 -s 2 -d 0 -p ack -e 40 -c 0 -i 45 -a 0 -x {5.0 0.0 0 ------- null}
h -t 0.5108 -s 2 -d 0 -p ack -e 40 -c 0 -i 45 -a 0 -x {5.0 0.0 -1 ------- null}
r -t 0.51296 -s 2 -d 0 -p ack -e 40 -c 0 -i 45 -a 0 -x {5.0 0.0 0 ------- null}
+ -t 0.51296 -s 0 -d 2 -p tcp -e 1040 -c 0 -i 46 -a 0 -x {0.0 5.0 1 ------- null}
- -t 0.51296 -s 0 -d 2 -p tcp -e 1040 -c 0 -i 46 -a 0 -x {0.0 5.0 1 ------- null}
h -t 0.51296 -s 0 -d 2 -p tcp -e 1040 -c 0 -i 46 -a 0 -x {0.0 5.0 -1 ------- null}
+ -t 0.51296 -s 0 -d 2 -p tcp -e 1040 -c 0 -i 47 -a 0 -x {0.0 5.0 2 ------- null}
- -t 0.51712 -s 0 -d 2 -p tcp -e 1040 -c 0 -i 47 -a 0 -x {0.0 5.0 2 ------- null}
h -t 0.51712 -s 0 -d 2 -p tcp -e 1040 -c 0 -i 47 -a 0 -x {0.0 5.0 -1 ------- null}
r -t 0.51912 -s 0 -d 2 -p tcp -e 1040 -c 0 -i 46 -a 0 -x {0.0 5.0 1 ------- null}
+ -t 0.51912 -s 2 -d 3 -p tcp -e 1040 -c 0 -i 46 -a 0 -x {0.0 5.0 1 ------- null}
- -t 0.51912 -s 2 -d 3 -p tcp -e 1040 -c 0 -i 46 -a 0 -x {0.0 5.0 1 ------- null}
h -t 0.51912 -s 2 -d 3 -p tcp -e 1040 -c 0 -i 46 -a 0 -x {0.0 5.0 -1 ------- null}
r -t 0.52328 -s 0 -d 2 -p tcp -e 1040 -c 0 -i 47 -a 0 -x {0.0 5.0 2 ------- null}
+ -t 0.52328 -s 2 -d 3 -p tcp -e 1040 -c 0 -i 47 -a 0 -x {0.0 5.0 2 ------- null}
- -t 0.52328 -s 2 -d 3 -p tcp -e 1040 -c 0 -i 47 -a 0 -x {0.0 5.0 2 ------- null}
h -t 0.52328 -s 2 -d 3 -p tcp -e 1040 -c 0 -i 47 -a 0 -x {0.0 5.0 -1 ------- null}
r -t 0.52528 -s 2 -d 3 -p tcp -e 1040 -c 0 -i 46 -a 0 -x {0.0 5.0 1 ------- null}
+ -t 0.52528 -s 3 -d 5 -p tcp -e 1040 -c 0 -i 46 -a 0 -x {0.0 5.0 1 ------- null}
- -t 0.52528 -s 3 -d 5 -p tcp -e 1040 -c 0 -i 46 -a 0 -x {0.0 5.0 1 ------- null}
h -t 0.52528 -s 3 -d 5 -p tcp -e 1040 -c 0 -i 46 -a 0 -x {0.0 5.0 -1 ------- null}
r -t 0.52944 -s 2 -d 3 -p tcp -e 1040 -c 0 -i 47 -a 0 -x {0.0 5.0 2 ------- null}
+ -t 0.52944 -s 3 -d 5 -p tcp -e 1040 -c 0 -i 47 -a 0 -x {0.0 5.0 2 ------- null}
- -t 0.52944 -s 3 -d 5 -p tcp -e 1040 -c 0 -i 47 -a 0 -x {0.0 5.0 2 ------- null}
h -t 0.52944 -s 3 -d 5 -p tcp -e 1040 -c 0 -i 47 -a 0 -x {0.0 5.0 -1 ------- null}
r -t 0.53144 -s 3 -d 5 -p tcp -e 1040 -c 0 -i 46 -a 0 -x {0.0 5.0 1 ------- null}
+ -t 0.53144 -s 5 -d 3 -p ack -e 40 -c 0 -i 48 -a 0 -x {5.0 0.0 1 ------- null}
- -t 0.53144 -s 5 -d 3 -p ack -e 40 -c 0 -i 48 -a 0 -x {5.0 0.0 1 ------- null}
h -t 0.53144 -s 5 -d 3 -p ack -e 40 -c 0 -i 48 -a 0 -x {5.0 0.0 -1 ------- null}
r -t 0.533600000000001 -s 5 -d 3 -p ack -e 40 -c 0 -i 48 -a 0 -x {5.0 0.0 1 ------- null}
+ -t 0.533600000000001 -s 3 -d 2 -p ack -e 40 -c 0 -i 48 -a 0 -x {5.0 0.0 1 ------- null}
- -t 0.533600000000001 -s 3 -d 2 -p ack -e 40 -c 0 -i 48 -a 0 -x {5.0 0.0 1 ------- null}
h -t 0.533600000000001 -s 3 -d 2 -p ack -e 40 -c 0 -i 48 -a 0 -x {5.0 0.0 -1 ------- null}
r -t 0.535600000000001 -s 3 -d 5 -p tcp -e 1040 -c 0 -i 47 -a 0 -x {0.0 5.0 2 ------- null}
+ -t 0.535600000000001 -s 5 -d 3 -p ack -e 40 -c 0 -i 49 -a 0 -x {5.0 0.0 2 ------- null}
- -t 0.535600000000001 -s 5 -d 3 -p ack -e 40 -c 0 -i 49 -a 0 -x {5.0 0.0 2 ------- null}
h -t 0.535600000000001 -s 5 -d 3 -p ack -e 40 -c 0 -i 49 -a 0 -x {5.0 0.0 -1 ------- null}
r -t 0.535760000000001 -s 3 -d 2 -p ack -e 40 -c 0 -i 48 -a 0 -x {5.0 0.0 1 ------- null}
+ -t 0.535760000000001 -s 2 -d 0 -p ack -e 40 -c 0 -i 48 -a 0 -x {5.0 0.0 1 ------- null}
- -t 0.535760000000001 -s 2 -d 0 -p ack -e 40 -c 0 -i 48 -a 0 -x {5.0 0.0 1 ------- null}
h -t 0.535760000000001 -s 2 -d 0 -p ack -e 40 -c 0 -i 48 -a 0 -x {5.0 0.0 -1 ------- null}
r -t 0.537760000000001 -s 5 -d 3 -p ack -e 40 -c 0 -i 49 -a 0 -x {5.0 0.0 2 ------- null}
+ -t 0.537760000000001 -s 3 -d 2 -p ack -e 40 -c 0 -i 49 -a 0 -x {5.0 0.0 2 ------- null}
- -t 0.537760000000001 -s 3 -d 2 -p ack -e 40 -c 0 -i 49 -a 0 -x {5.0 0.0 2 ------- null}
h -t 0.537760000000001 -s 3 -d 2 -p ack -e 40 -c 0 -i 49 -a 0 -x {5.0 0.0 -1 ------- null}
r -t 0.537920000000001 -s 2 -d 0 -p ack -e 40 -c 0 -i 48 -a 0 -x {5.0 0.0 1 ------- null}
+ -t 0.537920000000001 -s 0 -d 2 -p tcp -e 1040 -c 0 -i 50 -a 0 -x {0.0 5.0 3 ------- null}
- -t 0.537920000000001 -s 0 -d 2 -p tcp -e 1040 -c 0 -i 50 -a 0 -x {0.0 5.0 3 ------- null}
h -t 0.537920000000001 -s 0 -d 2 -p tcp -e 1040 -c 0 -i 50 -a 0 -x {0.0 5.0 -1 ------- null}
+ -t 0.537920000000001 -s 0 -d 2 -p tcp -e 1040 -c 0 -i 51 -a 0 -x {0.0 5.0 4 ------- null}
r -t 0.539920000000001 -s 3 -d 2 -p ack -e 40 -c 0 -i 49 -a 0 -x {5.0 0.0 2 ------- null}
+ -t 0.539920000000001 -s 2 -d 0 -p ack -e 40 -c 0 -i 49 -a 0 -x {5.0 0.0 2 ------- null}
- -t 0.539920000000001 -s 2 -d 0 -p ack -e 40 -c 0 -i 49 -a 0 -x {5.0 0.0 2 ------- null}
h -t 0.539920000000001 -s 2 -d 0 -p ack -e 40 -c 0 -i 49 -a 0 -x {5.0 0.0 -1 ------- null}
- -t 0.542080000000001 -s 0 -d 2 -p tcp -e 1040 -c 0 -i 51 -a 0 -x {0.0 5.0 4 ------- null}
h -t 0.542080000000001 -s 0 -d 2 -p tcp -e 1040 -c 0 -i 51 -a 0 -x {0.0 5.0 -1 ------- null}
r -t 0.542080000000001 -s 2 -d 0 -p ack -e 40 -c 0 -i 49 -a 0 -x {5.0 0.0 2 ------- null}
+ -t 0.542080000000001 -s 0 -d 2 -p tcp -e 1040 -c 0 -i 52 -a 0 -x {0.0 5.0 5 ------- null}
+ -t 0.542080000000001 -s 0 -d 2 -p tcp -e 1040 -c 0 -i 53 -a 0 -x {0.0 5.0 6 ------- null}
r -t 0.544080000000001 -s 0 -d 2 -p tcp -e 1040 -c 0 -i 50 -a 0 -x {0.0 5.0 3 ------- null}
+ -t 0.544080000000001 -s 2 -d 3 -p tcp -e 1040 -c 0 -i 50 -a 0 -x {0.0 5.0 3 ------- null}
- -t 0.544080000000001 -s 2 -d 3 -p tcp -e 1040 -c 0 -i 50 -a 0 -x {0.0 5.0 3 ------- null}
h -t 0.544080000000001 -s 2 -d 3 -p tcp -e 1040 -c 0 -i 50 -a 0 -x {0.0 5.0 -1 ------- null}
- -t 0.546240000000001 -s 0 -d 2 -p tcp -e 1040 -c 0 -i 52 -a 0 -x {0.0 5.0 5 ------- null}
h -t 0.546240000000001 -s 0 -d 2 -p tcp -e 1040 -c 0 -i 52 -a 0 -x {0.0 5.0 -1 ------- null}
r -t 0.548240000000001 -s 0 -d 2 -p tcp -e 1040 -c 0 -i 51 -a 0 -x {0.0 5.0 4 ------- null}
+ -t 0.548240000000001 -s 2 -d 3 -p tcp -e 1040 -c 0 -i 51 -a 0 -x {0.0 5.0 4 ------- null}
- -t 0.548240000000001 -s 2 -d 3 -p tcp -e 1040 -c 0 -i 51 -a 0 -x {0.0 5.0 4 ------- null}
h -t 0.548240000000001 -s 2 -d 3 -p tcp -e 1040 -c 0 -i 51 -a 0 -x {0.0 5.0 -1 ------- null}
r -t 0.550240000000001 -s 2 -d 3 -p tcp -e 1040 -c 0 -i 50 -a 0 -x {0.0 5.0 3 ------- null}
+ -t 0.550240000000001 -s 3 -d 5 -p tcp -e 1040 -c 0 -i 50 -a 0 -x {0.0 5.0 3 ------- null}
- -t 0.550240000000001 -s 3 -d 5 -p tcp -e 1040 -c 0 -i 50 -a 0 -x {0.0 5.0 3 ------- null}
h -t 0.550240000000001 -s 3 -d 5 -p tcp -e 1040 -c 0 -i 50 -a 0 -x {0.0 5.0 -1 ------- null}
- -t 0.550400000000001 -s 0 -d 2 -p tcp -e 1040 -c 0 -i 53 -a 0 -x {0.0 5.0 6 ------- null}
h -t 0.550400000000001 -s 0 -d 2 -p tcp -e 1040 -c 0 -i 53 -a 0 -x {0.0 5.0 -1 ------- null}
r -t 0.552400000000001 -s 0 -d 2 -p tcp -e 1040 -c 0 -i 52 -a 0 -x {0.0 5.0 5 ------- null}
+ -t 0.552400000000001 -s 2 -d 3 -p tcp -e 1040 -c 0 -i 52 -a 0 -x {0.0 5.0 5 ------- null}
- -t 0.552400000000001 -s 2 -d 3 -p tcp -e 1040 -c 0 -i 52 -a 0 -x {0.0 5.0 5 ------- null}
h -t 0.552400000000001 -s 2 -d 3 -p tcp -e 1040 -c 0 -i 52 -a 0 -x {0.0 5.0 -1 ------- null}
r -t 0.554400000000001 -s 2 -d 3 -p tcp -e 1040 -c 0 -i 51 -a 0 -x {0.0 5.0 4 ------- null}
+ -t 0.554400000000001 -s 3 -d 5 -p tcp -e 1040 -c 0 -i 51 -a 0 -x {0.0 5.0 4 ------- null}
- -t 0.554400000000001 -s 3 -d 5 -p tcp -e 1040 -c 0 -i 51 -a 0 -x {0.0 5.0 4 ------- null}
h -t 0.554400000000001 -s 3 -d 5 -p tcp -e 1040 -c 0 -i 51 -a 0 -x {0.0 5.0 -1 ------- null}
r -t 0.556400000000001 -s 3 -d 5 -p tcp -e 1040 -c 0 -i 50 -a 0 -x {0.0 5.0 3 ------- null}
+ -t 0.556400000000001 -s 5 -d 3 -p ack -e 40 -c 0 -i 54 -a 0 -x {5.0 0.0 3 ------- null}
- -t 0.556400000000001 -s 5 -d 3 -p ack -e 40 -c 0 -i 54 -a 0 -x {5.0 0.0 3 ------- null}
h -t 0.556400000000001 -s 5 -d 3 -p ack -e 40 -c 0 -i 54 -a 0 -x {5.0 0.0 -1 ------- null}
r -t 0.556560000000001 -s 0 -d 2 -p tcp -e 1040 -c 0 -i 53 -a 0 -x {0.0 5.0 6 ------- null}
+ -t 0.556560000000001 -s 2 -d 3 -p tcp -e 1040 -c 0 -i 53 -a 0 -x {0.0 5.0 6 ------- null}
- -t 0.556560000000001 -s 2 -d 3 -p tcp -e 1040 -c 0 -i 53 -a 0 -x {0.0 5.0 6 ------- null}
h -t 0.556560000000001 -s 2 -d 3 -p tcp -e 1040 -c 0 -i 53 -a 0 -x {0.0 5.0 -1 ------- null}
r -t 0.558560000000001 -s 2 -d 3 -p tcp -e 1040 -c 0 -i 52 -a 0 -x {0.0 5.0 5 ------- null}
+ -t 0.558560000000001 -s 3 -d 5 -p tcp -e 1040 -c 0 -i 52 -a 0 -x {0.0 5.0 5 ------- null}
- -t 0.558560000000001 -s 3 -d 5 -p tcp -e 1040 -c 0 -i 52 -a 0 -x {0.0 5.0 5 ------- null}
h -t 0.558560000000001 -s 3 -d 5 -p tcp -e 1040 -c 0 -i 52 -a 0 -x {0.0 5.0 -1 ------- null}
r -t 0.558560000000001 -s 5 -d 3 -p ack -e 40 -c 0 -i 54 -a 0 -x {5.0 0.0 3 ------- null}
+ -t 0.558560000000001 -s 3 -d 2 -p ack -e 40 -c 0 -i 54 -a 0 -x {5.0 0.0 3 ------- null}
- -t 0.558560000000001 -s 3 -d 2 -p ack -e 40 -c 0 -i 54 -a 0 -x {5.0 0.0 3 ------- null}
h -t 0.558560000000001 -s 3 -d 2 -p ack -e 40 -c 0 -i 54 -a 0 -x {5.0 0.0 -1 ------- null}
r -t 0.560560000000001 -s 3 -d 5 -p tcp -e 1040 -c 0 -i 51 -a 0 -x {0.0 5.0 4 ------- null}
+ -t 0.560560000000001 -s 5 -d 3 -p ack -e 40 -c 0 -i 55 -a 0 -x {5.0 0.0 4 ------- null}
- -t 0.560560000000001 -s 5 -d 3 -p ack -e 40 -c 0 -i 55 -a 0 -x {5.0 0.0 4 ------- null}
h -t 0.560560000000001 -s 5 -d 3 -p ack -e 40 -c 0 -i 55 -a 0 -x {5.0 0.0 -1 ------- null}
r -t 0.560720000000001 -s 3 -d 2 -p ack -e 40 -c 0 -i 54 -a 0 -x {5.0 0.0 3 ------- null}
+ -t 0.560720000000001 -s 2 -d 0 -p ack -e 40 -c 0 -i 54 -a 0 -x {5.0 0.0 3 ------- null}
- -t 0.560720000000001 -s 2 -d 0 -p ack -e 40 -c 0 -i 54 -a 0 -x {5.0 0.0 3 ------- null}
h -t 0.560720000000001 -s 2 -d 0 -p ack -e 40 -c 0 -i 54 -a 0 -x {5.0 0.0 -1 ------- null}
r -t 0.562720000000001 -s 2 -d 3 -p tcp -e 1040 -c 0 -i 53 -a 0 -x {0.0 5.0 6 ------- null}
+ -t 0.562720000000001 -s 3 -d 5 -p tcp -e 1040 -c 0 -i 53 -a 0 -x {0.0 5.0 6 ------- null}
- -t 0.562720000000001 -s 3 -d 5 -p tcp -e 1040 -c 0 -i 53 -a 0 -x {0.0 5.0 6 ------- null}
h -t 0.562720000000001 -s 3 -d 5 -p tcp -e 1040 -c 0 -i 53 -a 0 -x {0.0 5.0 -1 ------- null}
r -t 0.562720000000001 -s 5 -d 3 -p ack -e 40 -c 0 -i 55 -a 0 -x {5.0 0.0 4 ------- null}
+ -t 0.562720000000001 -s 3 -d 2 -p ack -e 40 -c 0 -i 55 -a 0 -x {5.0 0.0 4 ------- null}
- -t 0.562720000000001 -s 3 -d 2 -p ack -e 40 -c 0 -i 55 -a 0 -x {5.0 0.0 4 ------- null}
h -t 0.562720000000001 -s 3 -d 2 -p ack -e 40 -c 0 -i 55 -a 0 -x {5.0 0.0 -1 ------- null}
r -t 0.562880000000001 -s 2 -d 0 -p ack -e 40 -c 0 -i 54 -a 0 -x {5.0 0.0 3 ------- null}
+ -t 0.562880000000001 -s 0 -d 2 -p tcp -e 1040 -c 0 -i 56 -a 0 -x {0.0 5.0 7 ------- null}