+ 0.5 0 2 tcp 40 ------- 0 0.0 3.1 0 0
- 0.5 0 2 tcp 40 ------- 0 0.0 3.1 0 0
r 0.50216 0 2 tcp 40 ------- 0 0.0 3.1 0 0
+ 0.50216 2 3 tcp 40 ------- 0 0.0 3.1 0 0
- 0.50216 2 3 tcp 40 ------- 0 0.0 3.1 0 0
r 0.50432 2 3 tcp 40 ------- 0 0.0 3.1 0 0
+ 0.50432 3 2 ack 40 ------- 0 3.1 0.0 0 1
- 0.50432 3 2 ack 40 ------- 0 3.1 0.0 0 1
r 0.50648 3 2 ack 40 ------- 0 3.1 0.0 0 1
+ 0.50648 2 0 ack 40 ------- 0 3.1 0.0 0 1
- 0.50648 2 0 ack 40 ------- 0 3.1 0.0 0 1
r 0.50864 2 0 ack 40 ------- 0 3.1 0.0 0 1
+ 0.50864 0 2 tcp 1040 ------- 0 0.0 3.1 1 2
- 0.50864 0 2 tcp 1040 ------- 0 0.0 3.1 1 2
+ 0.50864 0 2 tcp 1040 ------- 0 0.0 3.1 2 3
- 0.5128 0 2 tcp 1040 ------- 0 0.0 3.1 2 3
r 0.5148 0 2 tcp 1040 ------- 0 0.0 3.1 1 2
+ 0.5148 2 3 tcp 1040 ------- 0 0.0 3.1 1 2
- 0.5148 2 3 tcp 1040 ------- 0 0.0 3.1 1 2
r 0.51896 0 2 tcp 1040 ------- 0 0.0 3.1 2 3
+ 0.51896 2 3 tcp 1040 ------- 0 0.0 3.1 2 3
- 0.51896 2 3 tcp 1040 ------- 0 0.0 3.1 2 3
r 0.52096 2 3 tcp 1040 ------- 0 0.0 3.1 1 2
+ 0.52096 3 2 ack 40 ------- 0 3.1 0.0 1 4
- 0.52096 3 2 ack 40 ------- 0 3.1 0.0 1 4
r 0.52312 3 2 ack 40 ------- 0 3.1 0.0 1 4
+ 0.52312 2 0 ack 40 ------- 0 3.1 0.0 1 4
- 0.52312 2 0 ack 40 ------- 0 3.1 0.0 1 4
r 0.52512 2 3 tcp 1040 ------- 0 0.0 3.1 2 3
+ 0.52512 3 2 ack 40 ------- 0 3.1 0.0 2 5
- 0.52512 3 2 ack 40 ------- 0 3.1 0.0 2 5
r 0.52528 2 0 ack 40 ------- 0 3.1 0.0 1 4
+ 0.52528 0 2 tcp 1040 ------- 0 0.0 3.1 3 6
- 0.52528 0 2 tcp 1040 ------- 0 0.0 3.1 3 6
+ 0.52528 0 2 tcp 1040 ------- 0 0.0 3.1 4 7
r 0.52728 3 2 ack 40 ------- 0 3.1 0.0 2 5
+ 0.52728 2 0 ack 40 ------- 0 3.1 0.0 2 5
- 0.52728 2 0 ack 40 ------- 0 3.1 0.0 2 5
- 0.52944 0 2 tcp 1040 ------- 0 0.0 3.1 4 7
r 0.52944 2 0 ack 40 ------- 0 3.1 0.0 2 5
+ 0.52944 0 2 tcp 1040 ------- 0 0.0 3.1 5 8
+ 0.52944 0 2 tcp 1040 ------- 0 0.0 3.1 6 9
r 0.53144 0 2 tcp 1040 ------- 0 0.0 3.1 3 6
+ 0.53144 2 3 tcp 1040 ------- 0 0.0 3.1 3 6
- 0.53144 2 3 tcp 1040 ------- 0 0.0 3.1 3 6
- 0.5336 0 2 tcp 1040 ------- 0 0.0 3.1 5 8
r 0.5356 0 2 tcp 1040 ------- 0 0.0 3.1 4 7
+ 0.5356 2 3 tcp 1040 ------- 0 0.0 3.1 4 7
- 0.5356 2 3 tcp 1040 ------- 0 0.0 3.1 4 7
r 0.5376 2 3 tcp 1040 ------- 0 0.0 3.1 3 6
+ 0.5376 3 2 ack 40 ------- 0 3.1 0.0 3 10
- 0.5376 3 2 ack 40 ------- 0 3.1 0.0 3 10
- 0.53776 0 2 tcp 1040 ------- 0 0.0 3.1 6 9
r 0.53976 0 2 tcp 1040 ------- 0 0.0 3.1 5 8
+ 0.53976 2 3 tcp 1040 ------- 0 0.0 3.1 5 8
- 0.53976 2 3 tcp 1040 ------- 0 0.0 3.1 5 8
r 0.53976 3 2 ack 40 ------- 0 3.1 0.0 3 10
+ 0.53976 2 0 ack 40 ------- 0 3.1 0.0 3 10
- 0.53976 2 0 ack 40 ------- 0 3.1 0.0 3 10
r 0.54176 2 3 tcp 1040 ------- 0 0.0 3.1 4 7
+ 0.54176 3 2 ack 40 ------- 0 3.1 0.0 4 11
- 0.54176 3 2 ack 40 ------- 0 3.1 0.0 4 11
r 0.54192 2 0 ack 40 ------- 0 3.1 0.0 3 10
+ 0.54192 0 2 tcp 1040 ------- 0 0.0 3.1 7 12
- 0.54192 0 2 tcp 1040 ------- 0 0.0 3.1 7 12
+ 0.54192 0 2 tcp 1040 ------- 0 0.0 3.1 8 13
r 0.54392 0 2 tcp 1040 ------- 0 0.0 3.1 6 9
+ 0.54392 2 3 tcp 1040 ------- 0 0.0 3.1 6 9
- 0.54392 2 3 tcp 1040 ------- 0 0.0 3.1 6 9
r 0.54392 3 2 ack 40 ------- 0 3.1 0.0 4 11
+ 0.54392 2 0 ack 40 ------- 0 3.1 0.0 4 11
- 0.54392 2 0 ack 40 ------- 0 3.1 0.0 4 11
r 0.54592 2 3 tcp 1040 ------- 0 0.0 3.1 5 8
+ 0.54592 3 2 ack 40 ------- 0 3.1 0.0 5 14
- 0.54592 3 2 ack 40 ------- 0 3.1 0.0 5 14
- 0.54608 0 2 tcp 1040 ------- 0 0.0 3.1 8 13
r 0.54608 2 0 ack 40 ------- 0 3.1 0.0 4 11
+ 0.54608 0 2 tcp 1040 ------- 0 0.0 3.1 9 15
+ 0.54608 0 2 tcp 1040 ------- 0 0.0 3.1 10 16
r 0.54808 0 2 tcp 1040 ------- 0 0.0 3.1 7 12
+ 0.54808 2 3 tcp 1040 ------- 0 0.0 3.1 7 12
- 0.54808 2 3 tcp 1040 ------- 0 0.0 3.1 7 12
r 0.54808 3 2 ack 40 ------- 0 3.1 0.0 5 14
+ 0.54808 2 0 ack 40 ------- 0 3.1 0.0 5 14
- 0.54808 2 0 ack 40 ------- 0 3.1 0.0 5 14
r 0.55008 2 3 tcp 1040 ------- 0 0.0 3.1 6 9
+ 0.55008 3 2 ack 40 ------- 0 3.1 0.0 6 17
- 0.55008 3 2 ack 40 ------- 0 3.1 0.0 6 17
- 0.55024 0 2 tcp 1040 ------- 0 0.0 3.1 9 15
r 0.55024 2 0 ack 40 ------- 0 3.1 0.0 5 14
+ 0.55024 0 2 tcp 1040 ------- 0 0.0 3.1 11 18
+ 0.55024 0 2 tcp 1040 ------- 0 0.0 3.1 12 19
r 0.55224 0 2 tcp 1040 ------- 0 0.0 3.1 8 13
+ 0.55224 2 3 tcp 1040 ------- 0 0.0 3.1 8 13
- 0.55224 2 3 tcp 1040 ------- 0 0.0 3.1 8 13
r 0.55224 3 2 ack 40 ------- 0 3.1 0.0 6 17
+ 0.55224 2 0 ack 40 ------- 0 3.1 0.0 6 17
- 0.55224 2 0 ack 40 ------- 0 3.1 0.0 6 17
r 0.55424 2 3 tcp 1040 ------- 0 0.0 3.1 7 12
+ 0.55424 3 2 ack 40 ------- 0 3.1 0.0 7 20
- 0.55424 3 2 ack 40 ------- 0 3.1 0.0 7 20
- 0.5544 0 2 tcp 1040 ------- 0 0.0 3.1 10 16
r 0.5544 2 0 ack 40 ------- 0 3.1 0.0 6 17
+ 0.5544 0 2 tcp 1040 ------- 0 0.0 3.1 13 21
+ 0.5544 0 2 tcp 1040 ------- 0 0.0 3.1 14 22
r 0.5564 0 2 tcp 1040 ------- 0 0.0 3.1 9 15
+ 0.5564 2 3 tcp 1040 ------- 0 0.0 3.1 9 15
- 0.5564 2 3 tcp 1040 ------- 0 0.0 3.1 9 15
r 0.5564 3 2 ack 40 ------- 0 3.1 0.0 7 20
+ 0.5564 2 0 ack 40 ------- 0 3.1 0.0 7 20
- 0.5564 2 0 ack 40 ------- 0 3.1 0.0 7 20
r 0.5584 2 3 tcp 1040 ------- 0 0.0 3.1 8 13
+ 0.5584 3 2 ack 40 ------- 0 3.1 0.0 8 23
- 0.5584 3 2 ack 40 ------- 0 3.1 0.0 8 23
- 0.55856 0 2 tcp 1040 ------- 0 0.0 3.1 11 18
r 0.55856 2 0 ack 40 ------- 0 3.1 0.0 7 20
+ 0.55856 0 2 tcp 1040 ------- 0 0.0 3.1 15 24
+ 0.55856 0 2 tcp 1040 ------- 0 0.0 3.1 16 25
d 0.55856 0 2 tcp 1040 ------- 0 0.0 3.1 16 25
r 0.56056 0 2 tcp 1040 ------- 0 0.0 3.1 10 16
+ 0.56056 2 3 tcp 1040 ------- 0 0.0 3.1 10 16
- 0.56056 2 3 tcp 1040 ------- 0 0.0 3.1 10 16
r 0.56056 3 2 ack 40 ------- 0 3.1 0.0 8 23
+ 0.56056 2 0 ack 40 ------- 0 3.1 0.0 8 23
- 0.56056 2 0 ack 40 ------- 0 3.1 0.0 8 23
r 0.56256 2 3 tcp 1040 ------- 0 0.0 3.1 9 15
+ 0.56256 3 2 ack 40 ------- 0 3.1 0.0 9 26
- 0.56256 3 2 ack 40 ------- 0 3.1 0.0 9 26
- 0.56272 0 2 tcp 1040 ------- 0 0.0 3.1 12 19
r 0.56272 2 0 ack 40 ------- 0 3.1 0.0 8 23
+ 0.56272 0 2 tcp 1040 ------- 0 0.0 3.1 17 27
+ 0.56272 0 2 tcp 1040 ------- 0 0.0 3.1 18 28
d 0.56272 0 2 tcp 1040 ------- 0 0.0 3.1 18 28
r 0.56472 0 2 tcp 1040 ------- 0 0.0 3.1 11 18
+ 0.56472 2 3 tcp 1040 ------- 0 0.0 3.1 11 18
- 0.56472 2 3 tcp 1040 ------- 0 0.0 3.1 11 18
r 0.56472 3 2 ack 40 ------- 0 3.1 0.0 9 26
+ 0.56472 2 0 ack 40 ------- 0 3.1 0.0 9 26
- 0.56472 2 0 ack 40 ------- 0 3.1 0.0 9 26
r 0.56672 2 3 tcp 1040 ------- 0 0.0 3.1 10 16
+ 0.56672 3 2 ack 40 ------- 0 3.1 0.0 10 29
- 0.56672 3 2 ack 40 ------- 0 3.1 0.0 10 29
- 0.56688 0 2 tcp 1040 ------- 0 0.0 3.1 13 21
r 0.56688 2 0 ack 40 ------- 0 3.1 0.0 9 26
+ 0.56688 0 2 tcp 1040 ------- 0 0.0 3.1 19 30
+ 0.56688 0 2 tcp 1040 ------- 0 0.0 3.1 20 31
d 0.56688 0 2 tcp 1040 ------- 0 0.0 3.1 20 31
r 0.56888 0 2 tcp 1040 ------- 0 0.0 3.1 12 19
+ 0.56888 2 3 tcp 1040 ------- 0 0.0 3.1 12 19
- 0.56888 2 3 tcp 1040 ------- 0 0.0 3.1 12 19
r 0.56888 3 2 ack 40 ------- 0 3.1 0.0 10 29
+ 0.56888 2 0 ack 40 ------- 0 3.1 0.0 10 29
- 0.56888 2 0 ack 40 ------- 0 3.1 0.0 10 29
r 0.57088 2 3 tcp 1040 ------- 0 0.0 3.1 11 18
+ 0.57088 3 2 ack 40 ------- 0 3.1 0.0 11 32
- 0.57088 3 2 ack 40 ------- 0 3.1 0.0 11 32
- 0.57104 0 2 tcp 1040 ------- 0 0.0 3.1 14 22
r 0.57104 2 0 ack 40 ------- 0 3.1 0.0 10 29
+ 0.57104 0 2 tcp 1040 ------- 0 0.0 3.1 21 33
+ 0.57104 0 2 tcp 1040 ------- 0 0.0 3.1 22 34
d 0.57104 0 2 tcp 1040 ------- 0 0.0 3.1 22 34
r 0.57304 0 2 tcp 1040 ------- 0 0.0 3.1 13 21
+ 0.57304 2 3 tcp 1040 ------- 0 0.0 3.1 13 21
- 0.57304 2 3 tcp 1040 ------- 0 0.0 3.1 13 21
r 0.57304 3 2 ack 40 ------- 0 3.1 0.0 11 32
+ 0.57304 2 0 ack 40 ------- 0 3.1 0.0 11 32
- 0.57304 2 0 ack 40 ------- 0 3.1 0.0 11 32
r 0.57504 2 3 tcp 1040 ------- 0 0.0 3.1 12 19
+ 0.57504 3 2 ack 40 ------- 0 3.1 0.0 12 35
- 0.57504 3 2 ack 40 ------- 0 3.1 0.0 12 35
- 0.5752 0 2 tcp 1040 ------- 0 0.0 3.1 15 24
r 0.5752 2 0 ack 40 ------- 0 3.1 0.0 11 32
+ 0.5752 0 2 tcp 1040 ------- 0 0.0 3.1 23 36
+ 0.5752 0 2 tcp 1040 ------- 0 0.0 3.1 24 37
d 0.5752 0 2 tcp 1040 ------- 0 0.0 3.1 24 37
r 0.5772 0 2 tcp 1040 ------- 0 0.0 3.1 14 22
+ 0.5772 2 3 tcp 1040 ------- 0 0.0 3.1 14 22
- 0.5772 2 3 tcp 1040 ------- 0 0.0 3.1 14 22
r 0.5772 3 2 ack 40 ------- 0 3.1 0.0 12 35
+ 0.5772 2 0 ack 40 ------- 0 3.1 0.0 12 35
- 0.5772 2 0 ack 40 ------- 0 3.1 0.0 12 35
r 0.5792 2 3 tcp 1040 ------- 0 0.0 3.1 13 21
+ 0.5792 3 2 ack 40 ------- 0 3.1 0.0 13 38
- 0.5792 3 2 ack 40 ------- 0 3.1 0.0 13 38
- 0.57936 0 2 tcp 1040 ------- 0 0.0 3.1 17 27
r 0.57936 2 0 ack 40 ------- 0 3.1 0.0 12 35
+ 0.57936 0 2 tcp 1040 ------- 0 0.0 3.1 25 39
+ 0.57936 0 2 tcp 1040 ------- 0 0.0 3.1 26 40
d 0.57936 0 2 tcp 1040 ------- 0 0.0 3.1 26 40
r 0.58136 0 2 tcp 1040 ------- 0 0.0 3.1 15 24
+ 0.58136 2 3 tcp 1040 ------- 0 0.0 3.1 15 24
- 0.58136 2 3 tcp 1040 ------- 0 0.0 3.1 15 24
r 0.58136 3 2 ack 40 ------- 0 3.1 0.0 13 38
+ 0.58136 2 0 ack 40 ------- 0 3.1 0.0 13 38
- 0.58136 2 0 ack 40 ------- 0 3.1 0.0 13 38
r 0.58336 2 3 tcp 1040 ------- 0 0.0 3.1 14 22
+ 0.58336 3 2 ack 40 ------- 0 3.1 0.0 14 41
- 0.58336 3 2 ack 40 ------- 0 3.1 0.0 14 41
- 0.58352 0 2 tcp 1040 ------- 0 0.0 3.1 19 30
r 0.58352 2 0 ack 40 ------- 0 3.1 0.0 13 38
+ 0.58352 0 2 tcp 1040 ------- 0 0.0 3.1 27 42
+ 0.58352 0 2 tcp 1040 ------- 0 0.0 3.1 28 43
d 0.58352 0 2 tcp 1040 ------- 0 0.0 3.1 28 43
r 0.58552 0 2 tcp 1040 ------- 0 0.0 3.1 17 27
+ 0.58552 2 3 tcp 1040 ------- 0 0.0 3.1 17 27
- 0.58552 2 3 tcp 1040 ------- 0 0.0 3.1 17 27
r 0.58552 3 2 ack 40 ------- 0 3.1 0.0 14 41
+ 0.58552 2 0 ack 40 ------- 0 3.1 0.0 14 41
- 0.58552 2 0 ack 40 ------- 0 3.1 0.0 14 41
r 0.58752 2 3 tcp 1040 ------- 0 0.0 3.1 15 24
+ 0.58752 3 2 ack 40 ------- 0 3.1 0.0 15 44
- 0.58752 3 2 ack 40 ------- 0 3.1 0.0 15 44
- 0.58768 0 2 tcp 1040 ------- 0 0.0 3.1 21 33
r 0.58768 2 0 ack 40 ------- 0 3.1 0.0 14 41
+ 0.58768 0 2 tcp 1040 ------- 0 0.0 3.1 29 45
+ 0.58768 0 2 tcp 1040 ------- 0 0.0 3.1 30 46
d 0.58768 0 2 tcp 1040 ------- 0 0.0 3.1 30 46
r 0.58968 0 2 tcp 1040 ------- 0 0.0 3.1 19 30
+ 0.58968 2 3 tcp 1040 ------- 0 0.0 3.1 19 30
- 0.58968 2 3 tcp 1040 ------- 0 0.0 3.1 19 30
r 0.58968 3 2 ack 40 ------- 0 3.1 0.0 15 44
+ 0.58968 2 0 ack 40 ------- 0 3.1 0.0 15 44
- 0.58968 2 0 ack 40 ------- 0 3.1 0.0 15 44
r 0.59168 2 3 tcp 1040 ------- 0 0.0 3.1 17 27
+ 0.59168 3 2 ack 40 ------- 0 3.1 0.0 15 47
- 0.59168 3 2 ack 40 ------- 0 3.1 0.0 15 47
- 0.59184 0 2 tcp 1040 ------- 0 0.0 3.1 23 36
r 0.59184 2 0 ack 40 ------- 0 3.1 0.0 15 44
+ 0.59184 0 2 tcp 1040 ------- 0 0.0 3.1 31 48
+ 0.59184 0 2 tcp 1040 ------- 0 0.0 3.1 32 49
d 0.59184 0 2 tcp 1040 ------- 0 0.0 3.1 32 49
r 0.59384 0 2 tcp 1040 ------- 0 0.0 3.1 21 33
+ 0.59384 2 3 tcp 1040 ------- 0 0.0 3.1 21 33
- 0.59384 2 3 tcp 1040 ------- 0 0.0 3.1 21 33
r 0.59384 3 2 ack 40 ------- 0 3.1 0.0 15 47
+ 0.59384 2 0 ack 40 ------- 0 3.1 0.0 15 47
- 0.59384 2 0 ack 40 ------- 0 3.1 0.0 15 47
r 0.59584 2 3 tcp 1040 ------- 0 0.0 3.1 19 30
+ 0.59584 3 2 ack 40 ------- 0 3.1 0.0 15 50
- 0.59584 3 2 ack 40 ------- 0 3.1 0.0 15 50
- 0.596 0 2 tcp 1040 ------- 0 0.0 3.1 25 39
r 0.596 2 0 ack 40 ------- 0 3.1 0.0 15 47
+ 0.596 0 2 tcp 1040 ------- 0 0.0 3.1 33 51
r 0.598 0 2 tcp 1040 ------- 0 0.0 3.1 23 36
+ 0.598 2 3 tcp 1040 ------- 0 0.0 3.1 23 36
- 0.598 2 3 tcp 1040 ------- 0 0.0 3.1 23 36
r 0.598 3 2 ack 40 ------- 0 3.1 0.0 15 50
+ 0.598 2 0 ack 40 ------- 0 3.1 0.0 15 50
- 0.598 2 0 ack 40 ------- 0 3.1 0.0 15 50
r 0.6 2 3 tcp 1040 ------- 0 0.0 3.1 21 33
+ 0.6 3 2 ack 40 ------- 0 3.1 0.0 15 52
- 0.6 3 2 ack 40 ------- 0 3.1 0.0 15 52
- 0.60016 0 2 tcp 1040 ------- 0 0.0 3.1 27 42
r 0.60016 2 0 ack 40 ------- 0 3.1 0.0 15 50
+ 0.60016 0 2 tcp 1040 ------- 0 0.0 3.1 34 53
r 0.60216 0 2 tcp 1040 ------- 0 0.0 3.1 25 39
+ 0.60216 2 3 tcp 1040 ------- 0 0.0 3.1 25 39
- 0.60216 2 3 tcp 1040 ------- 0 0.0 3.1 25 39
r 0.60216 3 2 ack 40 ------- 0 3.1 0.0 15 52
+ 0.60216 2 0 ack 40 ------- 0 3.1 0.0 15 52
- 0.60216 2 0 ack 40 ------- 0 3.1 0.0 15 52
r 0.60416 2 3 tcp 1040 ------- 0 0.0 3.1 23 36
+ 0.60416 3 2 ack 40 ------- 0 3.1 0.0 15 54
- 0.60416 3 2 ack 40 ------- 0 3.1 0.0 15 54
- 0.60432 0 2 tcp 1040 ------- 0 0.0 3.1 29 45
r 0.60432 2 0 ack 40 ------- 0 3.1 0.0 15 52
+ 0.60432 0 2 tcp 1040 ---A--- 0 0.0 3.1 16 55
r 0.60632 0 2 tcp 1040 ------- 0 0.0 3.1 27 42
+ 0.60632 2 3 tcp 1040 ------- 0 0.0 3.1 27 42
- 0.60632 2 3 tcp 1040 ------- 0 0.0 3.1 27 42
r 0.60632 3 2 ack 40 ------- 0 3.1 0.0 15 54
+ 0.60632 2 0 ack 40 ------- 0 3.1 0.0 15 54
- 0.60632 2 0 ack 40 ------- 0 3.1 0.0 15 54
r 0.60832 2 3 tcp 1040 ------- 0 0.0 3.1 25 39
+ 0.60832 3 2 ack 40 ------- 0 3.1 0.0 15 56
- 0.60832 3 2 ack 40 ------- 0 3.1 0.0 15 56
- 0.60848 0 2 tcp 1040 ------- 0 0.0 3.1 31 48
r 0.60848 2 0 ack 40 ------- 0 3.1 0.0 15 54
r 0.61048 0 2 tcp 1040 ------- 0 0.0 3.1 29 45
+ 0.61048 2 3 tcp 1040 ------- 0 0.0 3.1 29 45
- 0.61048 2 3 tcp 1040 ------- 0 0.0 3.1 29 45
r 0.61048 3 2 ack 40 ------- 0 3.1 0.0 15 56
+ 0.61048 2 0 ack 40 ------- 0 3.1 0.0 15 56
- 0.61048 2 0 ack 40 ------- 0 3.1 0.0 15 56
r 0.61248 2 3 tcp 1040 ------- 0 0.0 3.1 27 42
+ 0.61248 3 2 ack 40 ------- 0 3.1 0.0 15 57
- 0.61248 3 2 ack 40 ------- 0 3.1 0.0 15 57
- 0.61264 0 2 tcp 1040 ------- 0 0.0 3.1 33 51
r 0.61264 2 0 ack 40 ------- 0 3.1 0.0 15 56
r 0.61464 0 2 tcp 1040 ------- 0 0.0 3.1 31 48
+ 0.61464 2 3 tcp 1040 ------- 0 0.0 3.1 31 48
- 0.61464 2 3 tcp 1040 ------- 0 0.0 3.1 31 48
r 0.61464 3 2 ack 40 ------- 0 3.1 0.0 15 57
+ 0.61464 2 0 ack 40 ------- 0 3.1 0.0 15 57
- 0.61464 2 0 ack 40 ------- 0 3.1 0.0 15 57
r 0.61664 2 3 tcp 1040 ------- 0 0.0 3.1 29 45
+ 0.61664 3 2 ack 40 ------- 0 3.1 0.0 15 58
- 0.61664 3 2 ack 40 ------- 0 3.1 0.0 15 58
- 0.6168 0 2 tcp 1040 ------- 0 0.0 3.1 34 53
r 0.6168 2 0 ack 40 ------- 0 3.1 0.0 15 57
r 0.6188 0 2 tcp 1040 ------- 0 0.0 3.1 33 51
+ 0.6188 2 3 tcp 1040 ------- 0 0.0 3.1 33 51
- 0.6188 2 3 tcp 1040 ------- 0 0.0 3.1 33 51
r 0.6188 3 2 ack 40 ------- 0 3.1 0.0 15 58
+ 0.6188 2 0 ack 40 ------- 0 3.1 0.0 15 58
- 0.6188 2 0 ack 40 ------- 0 3.1 0.0 15 58
r 0.6208 2 3 tcp 1040 ------- 0 0.0 3.1 31 48
+ 0.6208 3 2 ack 40 ------- 0 3.1 0.0 15 59
- 0.6208 3 2 ack 40 ------- 0 3.1 0.0 15 59
- 0.62096 0 2 tcp 1040 ---A--- 0 0.0 3.1 16 55
r 0.62096 2 0 ack 40 ------- 0 3.1 0.0 15 58
r 0.62296 0 2 tcp 1040 ------- 0 0.0 3.1 34 53
+ 0.62296 2 3 tcp 1040 ------- 0 0.0 3.1 34 53
- 0.62296 2 3 tcp 1040 ------- 0 0.0 3.1 34 53
r 0.62296 3 2 ack 40 ------- 0 3.1 0.0 15 59
+ 0.62296 2 0 ack 40 ------- 0 3.1 0.0 15 59
- 0.62296 2 0 ack 40 ------- 0 3.1 0.0 15 59
r 0.62496 2 3 tcp 1040 ------- 0 0.0 3.1 33 51
+ 0.62496 3 2 ack 40 ------- 0 3.1 0.0 15 60
- 0.62496 3 2 ack 40 ------- 0 3.1 0.0 15 60
r 0.62512 2 0 ack 40 ------- 0 3.1 0.0 15 59
r 0.62712 0 2 tcp 1040 ---A--- 0 0.0 3.1 16 55
+ 0.62712 2 3 tcp 1040 ---A--- 0 0.0 3.1 16 55
- 0.62712 2 3 tcp 1040 ---A--- 0 0.0 3.1 16 55
r 0.62712 3 2 ack 40 ------- 0 3.1 0.0 15 60
+ 0.62712 2 0 ack 40 ------- 0 3.1 0.0 15 60
- 0.62712 2 0 ack 40 ------- 0 3.1 0.0 15 60
r 0.62912 2 3 tcp 1040 ------- 0 0.0 3.1 34 53
+ 0.62912 3 2 ack 40 ------- 0 3.1 0.0 15 61
- 0.62912 3 2 ack 40 ------- 0 3.1 0.0 15 61
r 0.62928 2 0 ack 40 ------- 0 3.1 0.0 15 60
r 0.63128 3 2 ack 40 ------- 0 3.1 0.0 15 61
+ 0.63128 2 0 ack 40 ------- 0 3.1 0.0 15 61
- 0.63128 2 0 ack 40 ------- 0 3.1 0.0 15 61
r 0.63328 2 3 tcp 1040 ---A--- 0 0.0 3.1 16 55
+ 0.63328 3 2 ack 40 ------- 0 3.1 0.0 17 62
- 0.63328 3 2 ack 40 ------- 0 3.1 0.0 17 62
r 0.63344 2 0 ack 40 ------- 0 3.1 0.0 15 61
r 0.63544 3 2 ack 40 ------- 0 3.1 0.0 17 62
+ 0.63544 2 0 ack 40 ------- 0 3.1 0.0 17 62
- 0.63544 2 0 ack 40 ------- 0 3.1 0.0 17 62
r 0.6376 2 0 ack 40 ------- 0 3.1 0.0 17 62
+ 0.6376 0 2 tcp 1040 ------- 0 0.0 3.1 18 63
- 0.6376 0 2 tcp 1040 ------- 0 0.0 3.1 18 63
+ 0.6376 0 2 tcp 1040 ------- 0 0.0 3.1 19 64
- 0.64176 0 2 tcp 1040 ------- 0 0.0 3.1 19 64
r 0.64376 0 2 tcp 1040 ------- 0 0.0 3.1 18 63
+ 0.64376 2 3 tcp 1040 ------- 0 0.0 3.1 18 63
- 0.64376 2 3 tcp 1040 ------- 0 0.0 3.1 18 63
r 0.64792 0 2 tcp 1040 ------- 0 0.0 3.1 19 64
+ 0.64792 2 3 tcp 1040 ------- 0 0.0 3.1 19 64
- 0.64792 2 3 tcp 1040 ------- 0 0.0 3.1 19 64
r 0.64992 2 3 tcp 1040 ------- 0 0.0 3.1 18 63
+ 0.64992 3 2 ack 40 ------- 0 3.1 0.0 19 65
- 0.64992 3 2 ack 40 ------- 0 3.1 0.0 19 65
r 0.65208 3 2 ack 40 ------- 0 3.1 0.0 19 65
+ 0.65208 2 0 ack 40 ------- 0 3.1 0.0 19 65
- 0.65208 2 0 ack 40 ------- 0 3.1 0.0 19 65
r 0.65408 2 3 tcp 1040 ------- 0 0.0 3.1 19 64
+ 0.65408 3 2 ack 40 ------- 0 3.1 0.0 19 66
- 0.65408 3 2 ack 40 ------- 0 3.1 0.0 19 66
r 0.65424 2 0 ack 40 ------- 0 3.1 0.0 19 65
+ 0.65424 0 2 tcp 1040 ------- 0 0.0 3.1 20 67
- 0.65424 0 2 tcp 1040 ------- 0 0.0 3.1 20 67
+ 0.65424 0 2 tcp 1040 ------- 0 0.0 3.1 21 68
+ 0.65424 0 2 tcp 1040 ------- 0 0.0 3.1 22 69
r 0.65624 3 2 ack 40 ------- 0 3.1 0.0 19 66
+ 0.65624 2 0 ack 40 ------- 0 3.1 0.0 19 66
- 0.65624 2 0 ack 40 ------- 0 3.1 0.0 19 66
- 0.6584 0 2 tcp 1040 ------- 0 0.0 3.1 21 68
r 0.6584 2 0 ack 40 ------- 0 3.1 0.0 19 66
+ 0.6584 0 2 tcp 1040 ------- 0 0.0 3.1 23 70
r 0.6604 0 2 tcp 1040 ------- 0 0.0 3.1 20 67
+ 0.6604 2 3 tcp 1040 ------- 0 0.0 3.1 20 67
- 0.6604 2 3 tcp 1040 ------- 0 0.0 3.1 20 67
- 0.66256 0 2 tcp 1040 ------- 0 0.0 3.1 22 69
r 0.66456 0 2 tcp 1040 ------- 0 0.0 3.1 21 68
+ 0.66456 2 3 tcp 1040 ------- 0 0.0 3.1 21 68
- 0.66456 2 3 tcp 1040 ------- 0 0.0 3.1 21 68
r 0.66656 2 3 tcp 1040 ------- 0 0.0 3.1 20 67
+ 0.66656 3 2 ack 40 ------- 0 3.1 0.0 21 71
- 0.66656 3 2 ack 40 ------- 0 3.1 0.0 21 71
- 0.66672 0 2 tcp 1040 ------- 0 0.0 3.1 23 70
r 0.66872 0 2 tcp 1040 ------- 0 0.0 3.1 22 69
+ 0.66872 2 3 tcp 1040 ------- 0 0.0 3.1 22 69
- 0.66872 2 3 tcp 1040 ------- 0 0.0 3.1 22 69
r 0.66872 3 2 ack 40 ------- 0 3.1 0.0 21 71
+ 0.66872 2 0 ack 40 ------- 0 3.1 0.0 21 71
- 0.66872 2 0 ack 40 ------- 0 3.1 0.0 21 71
r 0.67072 2 3 tcp 1040 ------- 0 0.0 3.1 21 68
+ 0.67072 3 2 ack 40 ------- 0 3.1 0.0 21 72
- 0.67072 3 2 ack 40 ------- 0 3.1 0.0 21 72
r 0.67088 2 0 ack 40 ------- 0 3.1 0.0 21 71
+ 0.67088 0 2 tcp 1040 ------- 0 0.0 3.1 24 73
- 0.67088 0 2 tcp 1040 ------- 0 0.0 3.1 24 73
+ 0.67088 0 2 tcp 1040 ------- 0 0.0 3.1 25 74
r 0.67288 0 2 tcp 1040 ------- 0 0.0 3.1 23 70
+ 0.67288 2 3 tcp 1040 ------- 0 0.0 3.1 23 70
- 0.67288 2 3 tcp 1040 ------- 0 0.0 3.1 23 70
r 0.67288 3 2 ack 40 ------- 0 3.1 0.0 21 72
+ 0.67288 2 0 ack 40 ------- 0 3.1 0.0 21 72
- 0.67288 2 0 ack 40 ------- 0 3.1 0.0 21 72
r 0.67488 2 3 tcp 1040 ------- 0 0.0 3.1 22 69
+ 0.67488 3 2 ack 40 ------- 0 3.1 0.0 23 75
- 0.67488 3 2 ack 40 ------- 0 3.1 0.0 23 75
- 0.67504 0 2 tcp 1040 ------- 0 0.0 3.1 25 74
r 0.67504 2 0 ack 40 ------- 0 3.1 0.0 21 72
+ 0.67504 0 2 tcp 1040 ------- 0 0.0 3.1 26 76
r 0.67704 0 2 tcp 1040 ------- 0 0.0 3.1 24 73
+ 0.67704 2 3 tcp 1040 ------- 0 0.0 3.1 24 73
- 0.67704 2 3 tcp 1040 ------- 0 0.0 3.1 24 73
r 0.67704 3 2 ack 40 ------- 0 3.1 0.0 23 75
+ 0.67704 2 0 ack 40 ------- 0 3.1 0.0 23 75
- 0.67704 2 0 ack 40 ------- 0 3.1 0.0 23 75
r 0.67904 2 3 tcp 1040 ------- 0 0.0 3.1 23 70
+ 0.67904 3 2 ack 40 ------- 0 3.1 0.0 23 77
- 0.67904 3 2 ack 40 ------- 0 3.1 0.0 23 77
- 0.6792 0 2 tcp 1040 ------- 0 0.0 3.1 26 76
r 0.6792 2 0 ack 40 ------- 0 3.1 0.0 23 75
+ 0.6792 0 2 tcp 1040 ------- 0 0.0 3.1 27 78
+ 0.6792 0 2 tcp 1040 ------- 0 0.0 3.1 28 79
r 0.6812 0 2 tcp 1040 ------- 0 0.0 3.1 25 74
+ 0.6812 2 3 tcp 1040 ------- 0 0.0 3.1 25 74
- 0.6812 2 3 tcp 1040 ------- 0 0.0 3.1 25 74
r 0.6812 3 2 ack 40 ------- 0 3.1 0.0 23 77
+ 0.6812 2 0 ack 40 ------- 0 3.1 0.0 23 77
- 0.6812 2 0 ack 40 ------- 0 3.1 0.0 23 77
r 0.6832 2 3 tcp 1040 ------- 0 0.0 3.1 24 73
+ 0.6832 3 2 ack 40 ------- 0 3.1 0.0 25 80
- 0.6832 3 2 ack 40 ------- 0 3.1 0.0 25 80
- 0.68336 0 2 tcp 1040 ------- 0 0.0 3.1 27 78
r 0.68336 2 0 ack 40 ------- 0 3.1 0.0 23 77
+ 0.68336 0 2 tcp 1040 ------- 0 0.0 3.1 29 81
r 0.68536 0 2 tcp 1040 ------- 0 0.0 3.1 26 76
+ 0.68536 2 3 tcp 1040 ------- 0 0.0 3.1 26 76
- 0.68536 2 3 tcp 1040 ------- 0 0.0 3.1 26 76
r 0.68536 3 2 ack 40 ------- 0 3.1 0.0 25 80
+ 0.68536 2 0 ack 40 ------- 0 3.1 0.0 25 80
- 0.68536 2 0 ack 40 ------- 0 3.1 0.0 25 80
r 0.68736 2 3 tcp 1040 ------- 0 0.0 3.1 25 74
+ 0.68736 3 2 ack 40 ------- 0 3.1 0.0 25 82
- 0.68736 3 2 ack 40 ------- 0 3.1 0.0 25 82
- 0.68752 0 2 tcp 1040 ------- 0 0.0 3.1 28 79
r 0.68752 2 0 ack 40 ------- 0 3.1 0.0 25 80
+ 0.68752 0 2 tcp 1040 ------- 0 0.0 3.1 30 83
+ 0.68752 0 2 tcp 1040 ------- 0 0.0 3.1 31 84
r 0.68952 0 2 tcp 1040 ------- 0 0.0 3.1 27 78
+ 0.68952 2 3 tcp 1040 ------- 0 0.0 3.1 27 78
- 0.68952 2 3 tcp 1040 ------- 0 0.0 3.1 27 78
r 0.68952 3 2 ack 40 ------- 0 3.1 0.0 25 82
+ 0.68952 2 0 ack 40 ------- 0 3.1 0.0 25 82
- 0.68952 2 0 ack 40 ------- 0 3.1 0.0 25 82
r 0.69152 2 3 tcp 1040 ------- 0 0.0 3.1 26 76
+ 0.69152 3 2 ack 40 ------- 0 3.1 0.0 27 85
- 0.69152 3 2 ack 40 ------- 0 3.1 0.0 27 85
- 0.69168 0 2 tcp 1040 ------- 0 0.0 3.1 29 81
r 0.69168 2 0 ack 40 ------- 0 3.1 0.0 25 82
+ 0.69168 0 2 tcp 1040 ------- 0 0.0 3.1 32 86
r 0.69368 0 2 tcp 1040 ------- 0 0.0 3.1 28 79
+ 0.69368 2 3 tcp 1040 ------- 0 0.0 3.1 28 79
- 0.69368 2 3 tcp 1040 ------- 0 0.0 3.1 28 79
r 0.69368 3 2 ack 40 ------- 0 3.1 0.0 27 85
+ 0.69368 2 0 ack 40 ------- 0 3.1 0.0 27 85
- 0.69368 2 0 ack 40 ------- 0 3.1 0.0 27 85
r 0.69568 2 3 tcp 1040 ------- 0 0.0 3.1 27 78
+ 0.69568 3 2 ack 40 ------- 0 3.1 0.0 27 87
- 0.69568 3 2 ack 40 ------- 0 3.1 0.0 27 87
- 0.69584 0 2 tcp 1040 ------- 0 0.0 3.1 30 83
r 0.69584 2 0 ack 40 ------- 0 3.1 0.0 27 85
+ 0.69584 0 2 tcp 1040 ------- 0 0.0 3.1 33 88
+ 0.69584 0 2 tcp 1040 ------- 0 0.0 3.1 34 89
r 0.69784 0 2 tcp 1040 ------- 0 0.0 3.1 29 81
+ 0.69784 2 3 tcp 1040 ------- 0 0.0 3.1 29 81
- 0.69784 2 3 tcp 1040 ------- 0 0.0 3.1 29 81
r 0.69784 3 2 ack 40 ------- 0 3.1 0.0 27 87
+ 0.69784 2 0 ack 40 ------- 0 3.1 0.0 27 87
- 0.69784 2 0 ack 40 ------- 0 3.1 0.0 27 87
r 0.69984 2 3 tcp 1040 ------- 0 0.0 3.1 28 79
+ 0.69984 3 2 ack 40 ------- 0 3.1 0.0 29 90
- 0.69984 3 2 ack 40 ------- 0 3.1 0.0 29 90
- 0.7 0 2 tcp 1040 ------- 0 0.0 3.1 31 84
r 0.7 2 0 ack 40 ------- 0 3.1 0.0 27 87
+ 0.7 0 2 tcp 1040 ------- 0 0.0 3.1 35 91
r 0.702 0 2 tcp 1040 ------- 0 0.0 3.1 30 83
+ 0.702 2 3 tcp 1040 ------- 0 0.0 3.1 30 83
- 0.702 2 3 tcp 1040 ------- 0 0.0 3.1 30 83
r 0.702 3 2 ack 40 ------- 0 3.1 0.0 29 90
+ 0.702 2 0 ack 40 ------- 0 3.1 0.0 29 90
- 0.702 2 0 ack 40 ------- 0 3.1 0.0 29 90
r 0.704 2 3 tcp 1040 ------- 0 0.0 3.1 29 81
+ 0.704 3 2 ack 40 ------- 0 3.1 0.0 29 92
- 0.704 3 2 ack 40 ------- 0 3.1 0.0 29 92
- 0.70416 0 2 tcp 1040 ------- 0 0.0 3.1 32 86
r 0.70416 2 0 ack 40 ------- 0 3.1 0.0 29 90
+ 0.70416 0 2 tcp 1040 ------- 0 0.0 3.1 36 93
+ 0.70416 0 2 tcp 1040 ------- 0 0.0 3.1 37 94
d 0.70416 0 2 tcp 1040 ------- 0 0.0 3.1 37 94
r 0.70616 0 2 tcp 1040 ------- 0 0.0 3.1 31 84
+ 0.70616 2 3 tcp 1040 ------- 0 0.0 3.1 31 84
- 0.70616 2 3 tcp 1040 ------- 0 0.0 3.1 31 84
r 0.70616 3 2 ack 40 ------- 0 3.1 0.0 29 92
+ 0.70616 2 0 ack 40 ------- 0 3.1 0.0 29 92
- 0.70616 2 0 ack 40 ------- 0 3.1 0.0 29 92
r 0.70816 2 3 tcp 1040 ------- 0 0.0 3.1 30 83
+ 0.70816 3 2 ack 40 ------- 0 3.1 0.0 31 95
- 0.70816 3 2 ack 40 ------- 0 3.1 0.0 31 95
- 0.70832 0 2 tcp 1040 ------- 0 0.0 3.1 33 88
r 0.70832 2 0 ack 40 ------- 0 3.1 0.0 29 92
+ 0.70832 0 2 tcp 1040 ------- 0 0.0 3.1 38 96
r 0.71032 0 2 tcp 1040 ------- 0 0.0 3.1 32 86
+ 0.71032 2 3 tcp 1040 ------- 0 0.0 3.1 32 86
- 0.71032 2 3 tcp 1040 ------- 0 0.0 3.1 32 86
r 0.71032 3 2 ack 40 ------- 0 3.1 0.0 31 95
+ 0.71032 2 0 ack 40 ------- 0 3.1 0.0 31 95
- 0.71032 2 0 ack 40 ------- 0 3.1 0.0 31 95
r 0.71232 2 3 tcp 1040 ------- 0 0.0 3.1 31 84
+ 0.71232 3 2 ack 40 ------- 0 3.1 0.0 31 97
- 0.71232 3 2 ack 40 ------- 0 3.1 0.0 31 97
- 0.71248 0 2 tcp 1040 ------- 0 0.0 3.1 34 89
r 0.71248 2 0 ack 40 ------- 0 3.1 0.0 31 95
+ 0.71248 0 2 tcp 1040 ------- 0 0.0 3.1 39 98
r 0.71448 0 2 tcp 1040 ------- 0 0.0 3.1 33 88
+ 0.71448 2 3 tcp 1040 ------- 0 0.0 3.1 33 88
- 0.71448 2 3 tcp 1040 ------- 0 0.0 3.1 33 88
r 0.71448 3 2 ack 40 ------- 0 3.1 0.0 31 97
+ 0.71448 2 0 ack 40 ------- 0 3.1 0.0 31 97
- 0.71448 2 0 ack 40 ------- 0 3.1 0.0 31 97
r 0.71648 2 3 tcp 1040 ------- 0 0.0 3.1 32 86
+ 0.71648 3 2 ack 40 ------- 0 3.1 0.0 34 99
- 0.71648 3 2 ack 40 ------- 0 3.1 0.0 34 99
- 0.71664 0 2 tcp 1040 ------- 0 0.0 3.1 35 91
r 0.71664 2 0 ack 40 ------- 0 3.1 0.0 31 97
+ 0.71664 0 2 tcp 1040 ------- 0 0.0 3.1 40 100
r 0.71864 0 2 tcp 1040 ------- 0 0.0 3.1 34 89
+ 0.71864 2 3 tcp 1040 ------- 0 0.0 3.1 34 89
- 0.71864 2 3 tcp 1040 ------- 0 0.0 3.1 34 89
r 0.71864 3 2 ack 40 ------- 0 3.1 0.0 34 99
+ 0.71864 2 0 ack 40 ------- 0 3.1 0.0 34 99
- 0.71864 2 0 ack 40 ------- 0 3.1 0.0 34 99
r 0.72064 2 3 tcp 1040 ------- 0 0.0 3.1 33 88
+ 0.72064 3 2 ack 40 ------- 0 3.1 0.0 34 101
- 0.72064 3 2 ack 40 ------- 0 3.1 0.0 34 101
- 0.7208 0 2 tcp 1040 ------- 0 0.0 3.1 36 93
r 0.7208 2 0 ack 40 ------- 0 3.1 0.0 34 99
+ 0.7208 0 2 tcp 1040 ------- 0 0.0 3.1 41 102
+ 0.7208 0 2 tcp 1040 ------- 0 0.0 3.1 42 103
d 0.7208 0 2 tcp 1040 ------- 0 0.0 3.1 42 103
r 0.7228 0 2 tcp 1040 ------- 0 0.0 3.1 35 91
+ 0.7228 2 3 tcp 1040 ------- 0 0.0 3.1 35 91
- 0.7228 2 3 tcp 1040 ------- 0 0.0 3.1 35 91
r 0.7228 3 2 ack 40 ------- 0 3.1 0.0 34 101
+ 0.7228 2 0 ack 40 ------- 0 3.1 0.0 34 101
- 0.7228 2 0 ack 40 ------- 0 3.1 0.0 34 101
r 0.7248 2 3 tcp 1040 ------- 0 0.0 3.1 34 89
+ 0.7248 3 2 ack 40 ------- 0 3.1 0.0 34 104
- 0.7248 3 2 ack 40 ------- 0 3.1 0.0 34 104
- 0.72496 0 2 tcp 1040 ------- 0 0.0 3.1 38 96
r 0.72496 2 0 ack 40 ------- 0 3.1 0.0 34 101
+ 0.72496 0 2 tcp 1040 ------- 0 0.0 3.1 43 105
r 0.72696 0 2 tcp 1040 ------- 0 0.0 3.1 36 93
+ 0.72696 2 3 tcp 1040 ------- 0 0.0 3.1 36 93
- 0.72696 2 3 tcp 1040 ------- 0 0.0 3.1 36 93
r 0.72696 3 2 ack 40 ------- 0 3.1 0.0 34 104
+ 0.72696 2 0 ack 40 ------- 0 3.1 0.0 34 104
- 0.72696 2 0 ack 40 ------- 0 3.1 0.0 34 104
r 0.72896 2 3 tcp 1040 ------- 0 0.0 3.1 35 91
+ 0.72896 3 2 ack 40 ------- 0 3.1 0.0 35 106
- 0.72896 3 2 ack 40 ------- 0 3.1 0.0 35 106
- 0.72912 0 2 tcp 1040 ------- 0 0.0 3.1 39 98
r 0.72912 2 0 ack 40 ------- 0 3.1 0.0 34 104
+ 0.72912 0 2 tcp 1040 ------- 0 0.0 3.1 44 107
r 0.73112 0 2 tcp 1040 ------- 0 0.0 3.1 38 96
+ 0.73112 2 3 tcp 1040 ------- 0 0.0 3.1 38 96
- 0.73112 2 3 tcp 1040 ------- 0 0.0 3.1 38 96
r 0.73112 3 2 ack 40 ------- 0 3.1 0.0 35 106
+ 0.73112 2 0 ack 40 ------- 0 3.1 0.0 35 106
- 0.73112 2 0 ack 40 ------- 0 3.1 0.0 35 106
r 0.73312 2 3 tcp 1040 ------- 0 0.0 3.1 36 93
+ 0.73312 3 2 ack 40 ------- 0 3.1 0.0 36 108
- 0.73312 3 2 ack 40 ------- 0 3.1 0.0 36 108
- 0.73328 0 2 tcp 1040 ------- 0 0.0 3.1 40 100
r 0.73328 2 0 ack 40 ------- 0 3.1 0.0 35 106
r 0.73528 0 2 tcp 1040 ------- 0 0.0 3.1 39 98
+ 0.73528 2 3 tcp 1040 ------- 0 0.0 3.1 39 98
- 0.73528 2 3 tcp 1040 ------- 0 0.0 3.1 39 98
r 0.73528 3 2 ack 40 ------- 0 3.1 0.0 36 108
+ 0.73528 2 0 ack 40 ------- 0 3.1 0.0 36 108
- 0.73528 2 0 ack 40 ------- 0 3.1 0.0 36 108
r 0.73728 2 3 tcp 1040 ------- 0 0.0 3.1 38 96
+ 0.73728 3 2 ack 40 ------- 0 3.1 0.0 36 109
- 0.73728 3 2 ack 40 ------- 0 3.1 0.0 36 109
- 0.73744 0 2 tcp 1040 ------- 0 0.0 3.1 41 102
r 0.73744 2 0 ack 40 ------- 0 3.1 0.0 36 108
r 0.73944 0 2 tcp 1040 ------- 0 0.0 3.1 40 100
+ 0.73944 2 3 tcp 1040 ------- 0 0.0 3.1 40 100
- 0.73944 2 3 tcp 1040 ------- 0 0.0 3.1 40 100
r 0.73944 3 2 ack 40 ------- 0 3.1 0.0 36 109
+ 0.73944 2 0 ack 40 ------- 0 3.1 0.0 36 109
- 0.73944 2 0 ack 40 ------- 0 3.1 0.0 36 109
r 0.74144 2 3 tcp 1040 ------- 0 0.0 3.1 39 98
+ 0.74144 3 2 ack 40 ------- 0 3.1 0.0 36 110
- 0.74144 3 2 ack 40 ------- 0 3.1 0.0 36 110
- 0.7416 0 2 tcp 1040 ------- 0 0.0 3.1 43 105
r 0.7416 2 0 ack 40 ------- 0 3.1 0.0 36 109
+ 0.7416 0 2 tcp 1040 ------- 0 0.0 3.1 45 111
r 0.7436 0 2 tcp 1040 ------- 0 0.0 3.1 41 102
+ 0.7436 2 3 tcp 1040 ------- 0 0.0 3.1 41 102
- 0.7436 2 3 tcp 1040 ------- 0 0.0 3.1 41 102
r 0.7436 3 2 ack 40 ------- 0 3.1 0.0 36 110
+ 0.7436 2 0 ack 40 ------- 0 3.1 0.0 36 110
- 0.7436 2 0 ack 40 ------- 0 3.1 0.0 36 110
r 0.7456 2 3 tcp 1040 ------- 0 0.0 3.1 40 100
+ 0.7456 3 2 ack 40 ------- 0 3.1 0.0 36 112
- 0.7456 3 2 ack 40 ------- 0 3.1 0.0 36 112
- 0.74576 0 2 tcp 1040 ------- 0 0.0 3.1 44 107
r 0.74576 2 0 ack 40 ------- 0 3.1 0.0 36 110
+ 0.74576 0 2 tcp 1040 ------- 0 0.0 3.1 46 113
r 0.74776 0 2 tcp 1040 ------- 0 0.0 3.1 43 105
+ 0.74776 2 3 tcp 1040 ------- 0 0.0 3.1 43 105
- 0.74776 2 3 tcp 1040 ------- 0 0.0 3.1 43 105
r 0.74776 3 2 ack 40 ------- 0 3.1 0.0 36 112
+ 0.74776 2 0 ack 40 ------- 0 3.1 0.0 36 112
- 0.74776 2 0 ack 40 ------- 0 3.1 0.0 36 112
r 0.74976 2 3 tcp 1040 ------- 0 0.0 3.1 41 102
+ 0.74976 3 2 ack 40 ------- 0 3.1 0.0 36 114
- 0.74976 3 2 ack 40 ------- 0 3.1 0.0 36 114
- 0.74992 0 2 tcp 1040 ------- 0 0.0 3.1 45 111
r 0.74992 2 0 ack 40 ------- 0 3.1 0.0 36 112
+ 0.74992 0 2 tcp 1040 ---A--- 0 0.0 3.1 37 115
r 0.75192 0 2 tcp 1040 ------- 0 0.0 3.1 44 107
+ 0.75192 2 3 tcp 1040 ------- 0 0.0 3.1 44 107
- 0.75192 2 3 tcp 1040 ------- 0 0.0 3.1 44 107
r 0.75192 3 2 ack 40 ------- 0 3.1 0.0 36 114
+ 0.75192 2 0 ack 40 ------- 0 3.1 0.0 36 114
- 0.75192 2 0 ack 40 ------- 0 3.1 0.0 36 114
r 0.75392 2 3 tcp 1040 ------- 0 0.0 3.1 43 105
+ 0.75392 3 2 ack 40 ------- 0 3.1 0.0 36 116
- 0.75392 3 2 ack 40 ------- 0 3.1 0.0 36 116
- 0.75408 0 2 tcp 1040 ------- 0 0.0 3.1 46 113
r 0.75408 2 0 ack 40 ------- 0 3.1 0.0 36 114
r 0.75608 0 2 tcp 1040 ------- 0 0.0 3.1 45 111
+ 0.75608 2 3 tcp 1040 ------- 0 0.0 3.1 45 111
- 0.75608 2 3 tcp 1040 ------- 0 0.0 3.1 45 111
r 0.75608 3 2 ack 40 ------- 0 3.1 0.0 36 116
+ 0.75608 2 0 ack 40 ------- 0 3.1 0.0 36 116
- 0.75608 2 0 ack 40 ------- 0 3.1 0.0 36 116
r 0.75808 2 3 tcp 1040 ------- 0 0.0 3.1 44 107
+ 0.75808 3 2 ack 40 ------- 0 3.1 0.0 36 117
- 0.75808 3 2 ack 40 ------- 0 3.1 0.0 36 117
- 0.75824 0 2 tcp 1040 ---A--- 0 0.0 3.1 37 115
r 0.75824 2 0 ack 40 ------- 0 3.1 0.0 36 116
r 0.76024 0 2 tcp 1040 ------- 0 0.0 3.1 46 113
+ 0.76024 2 3 tcp 1040 ------- 0 0.0 3.1 46 113
- 0.76024 2 3 tcp 1040 ------- 0 0.0 3.1 46 113
r 0.76024 3 2 ack 40 ------- 0 3.1 0.0 36 117
+ 0.76024 2 0 ack 40 ------- 0 3.1 0.0 36 117
- 0.76024 2 0 ack 40 ------- 0 3.1 0.0 36 117