V -t * -v 1.0a5 -a 0
A -t * -n 1 -p 0 -o 0x7fffffff -c 30 -a 1
A -t * -h 1 -m 1073741823 -s 0
n -t * -a 0 -s 0 -S UP -v circle -c black -i black
n -t * -a 1 -s 1 -S UP -v circle -c black -i black
n -t * -a 2 -s 2 -S UP -v circle -c black -i black
n -t * -a 3 -s 3 -S UP -v circle -c black -i black
l -t * -s 0 -d 2 -S UP -r 2000000 -D 0.002 -c black
l -t * -s 1 -d 2 -S UP -r 2000000 -D 0.002 -c black
l -t * -s 2 -d 3 -S UP -r 2000000 -D 0.002 -c black
+ -t 0.5 -s 0 -d 2 -p tcp -e 40 -c 0 -i 0 -a 0 -x {0.0 3.1 0 ------- null}
- -t 0.5 -s 0 -d 2 -p tcp -e 40 -c 0 -i 0 -a 0 -x {0.0 3.1 0 ------- null}
h -t 0.5 -s 0 -d 2 -p tcp -e 40 -c 0 -i 0 -a 0 -x {0.0 3.1 -1 ------- null}
r -t 0.50216 -s 0 -d 2 -p tcp -e 40 -c 0 -i 0 -a 0 -x {0.0 3.1 0 ------- null}
+ -t 0.50216 -s 2 -d 3 -p tcp -e 40 -c 0 -i 0 -a 0 -x {0.0 3.1 0 ------- null}
- -t 0.50216 -s 2 -d 3 -p tcp -e 40 -c 0 -i 0 -a 0 -x {0.0 3.1 0 ------- null}
h -t 0.50216 -s 2 -d 3 -p tcp -e 40 -c 0 -i 0 -a 0 -x {0.0 3.1 -1 ------- null}
r -t 0.50432 -s 2 -d 3 -p tcp -e 40 -c 0 -i 0 -a 0 -x {0.0 3.1 0 ------- null}
+ -t 0.50432 -s 3 -d 2 -p ack -e 40 -c 0 -i 1 -a 0 -x {3.1 0.0 0 ------- null}
- -t 0.50432 -s 3 -d 2 -p ack -e 40 -c 0 -i 1 -a 0 -x {3.1 0.0 0 ------- null}
h -t 0.50432 -s 3 -d 2 -p ack -e 40 -c 0 -i 1 -a 0 -x {3.1 0.0 -1 ------- null}
r -t 0.50648 -s 3 -d 2 -p ack -e 40 -c 0 -i 1 -a 0 -x {3.1 0.0 0 ------- null}
+ -t 0.50648 -s 2 -d 0 -p ack -e 40 -c 0 -i 1 -a 0 -x {3.1 0.0 0 ------- null}
- -t 0.50648 -s 2 -d 0 -p ack -e 40 -c 0 -i 1 -a 0 -x {3.1 0.0 0 ------- null}
h -t 0.50648 -s 2 -d 0 -p ack -e 40 -c 0 -i 1 -a 0 -x {3.1 0.0 -1 ------- null}
r -t 0.50864 -s 2 -d 0 -p ack -e 40 -c 0 -i 1 -a 0 -x {3.1 0.0 0 ------- null}
+ -t 0.50864 -s 0 -d 2 -p tcp -e 1040 -c 0 -i 2 -a 0 -x {0.0 3.1 1 ------- null}
- -t 0.50864 -s 0 -d 2 -p tcp -e 1040 -c 0 -i 2 -a 0 -x {0.0 3.1 1 ------- null}
h -t 0.50864 -s 0 -d 2 -p tcp -e 1040 -c 0 -i 2 -a 0 -x {0.0 3.1 -1 ------- null}
+ -t 0.50864 -s 0 -d 2 -p tcp -e 1040 -c 0 -i 3 -a 0 -x {0.0 3.1 2 ------- null}
- -t 0.5128 -s 0 -d 2 -p tcp -e 1040 -c 0 -i 3 -a 0 -x {0.0 3.1 2 ------- null}
h -t 0.5128 -s 0 -d 2 -p tcp -e 1040 -c 0 -i 3 -a 0 -x {0.0 3.1 -1 ------- null}
r -t 0.5148 -s 0 -d 2 -p tcp -e 1040 -c 0 -i 2 -a 0 -x {0.0 3.1 1 ------- null}
+ -t 0.5148 -s 2 -d 3 -p tcp -e 1040 -c 0 -i 2 -a 0 -x {0.0 3.1 1 ------- null}
- -t 0.5148 -s 2 -d 3 -p tcp -e 1040 -c 0 -i 2 -a 0 -x {0.0 3.1 1 ------- null}
h -t 0.5148 -s 2 -d 3 -p tcp -e 1040 -c 0 -i 2 -a 0 -x {0.0 3.1 -1 ------- null}
r -t 0.51896 -s 0 -d 2 -p tcp -e 1040 -c 0 -i 3 -a 0 -x {0.0 3.1 2 ------- null}
+ -t 0.51896 -s 2 -d 3 -p tcp -e 1040 -c 0 -i 3 -a 0 -x {0.0 3.1 2 ------- null}
- -t 0.51896 -s 2 -d 3 -p tcp -e 1040 -c 0 -i 3 -a 0 -x {0.0 3.1 2 ------- null}
h -t 0.51896 -s 2 -d 3 -p tcp -e 1040 -c 0 -i 3 -a 0 -x {0.0 3.1 -1 ------- null}
r -t 0.52096 -s 2 -d 3 -p tcp -e 1040 -c 0 -i 2 -a 0 -x {0.0 3.1 1 ------- null}
+ -t 0.52096 -s 3 -d 2 -p ack -e 40 -c 0 -i 4 -a 0 -x {3.1 0.0 1 ------- null}
- -t 0.52096 -s 3 -d 2 -p ack -e 40 -c 0 -i 4 -a 0 -x {3.1 0.0 1 ------- null}
h -t 0.52096 -s 3 -d 2 -p ack -e 40 -c 0 -i 4 -a 0 -x {3.1 0.0 -1 ------- null}
r -t 0.52312 -s 3 -d 2 -p ack -e 40 -c 0 -i 4 -a 0 -x {3.1 0.0 1 ------- null}
+ -t 0.52312 -s 2 -d 0 -p ack -e 40 -c 0 -i 4 -a 0 -x {3.1 0.0 1 ------- null}
- -t 0.52312 -s 2 -d 0 -p ack -e 40 -c 0 -i 4 -a 0 -x {3.1 0.0 1 ------- null}
h -t 0.52312 -s 2 -d 0 -p ack -e 40 -c 0 -i 4 -a 0 -x {3.1 0.0 -1 ------- null}
r -t 0.52512 -s 2 -d 3 -p tcp -e 1040 -c 0 -i 3 -a 0 -x {0.0 3.1 2 ------- null}
+ -t 0.52512 -s 3 -d 2 -p ack -e 40 -c 0 -i 5 -a 0 -x {3.1 0.0 2 ------- null}
- -t 0.52512 -s 3 -d 2 -p ack -e 40 -c 0 -i 5 -a 0 -x {3.1 0.0 2 ------- null}
h -t 0.52512 -s 3 -d 2 -p ack -e 40 -c 0 -i 5 -a 0 -x {3.1 0.0 -1 ------- null}
r -t 0.52528 -s 2 -d 0 -p ack -e 40 -c 0 -i 4 -a 0 -x {3.1 0.0 1 ------- null}
+ -t 0.52528 -s 0 -d 2 -p tcp -e 1040 -c 0 -i 6 -a 0 -x {0.0 3.1 3 ------- null}
- -t 0.52528 -s 0 -d 2 -p tcp -e 1040 -c 0 -i 6 -a 0 -x {0.0 3.1 3 ------- null}
h -t 0.52528 -s 0 -d 2 -p tcp -e 1040 -c 0 -i 6 -a 0 -x {0.0 3.1 -1 ------- null}
+ -t 0.52528 -s 0 -d 2 -p tcp -e 1040 -c 0 -i 7 -a 0 -x {0.0 3.1 4 ------- null}
r -t 0.52728 -s 3 -d 2 -p ack -e 40 -c 0 -i 5 -a 0 -x {3.1 0.0 2 ------- null}
+ -t 0.52728 -s 2 -d 0 -p ack -e 40 -c 0 -i 5 -a 0 -x {3.1 0.0 2 ------- null}
- -t 0.52728 -s 2 -d 0 -p ack -e 40 -c 0 -i 5 -a 0 -x {3.1 0.0 2 ------- null}
h -t 0.52728 -s 2 -d 0 -p ack -e 40 -c 0 -i 5 -a 0 -x {3.1 0.0 -1 ------- null}
- -t 0.52944 -s 0 -d 2 -p tcp -e 1040 -c 0 -i 7 -a 0 -x {0.0 3.1 4 ------- null}
h -t 0.52944 -s 0 -d 2 -p tcp -e 1040 -c 0 -i 7 -a 0 -x {0.0 3.1 -1 ------- null}
r -t 0.52944 -s 2 -d 0 -p ack -e 40 -c 0 -i 5 -a 0 -x {3.1 0.0 2 ------- null}
+ -t 0.52944 -s 0 -d 2 -p tcp -e 1040 -c 0 -i 8 -a 0 -x {0.0 3.1 5 ------- null}
+ -t 0.52944 -s 0 -d 2 -p tcp -e 1040 -c 0 -i 9 -a 0 -x {0.0 3.1 6 ------- null}
r -t 0.53144 -s 0 -d 2 -p tcp -e 1040 -c 0 -i 6 -a 0 -x {0.0 3.1 3 ------- null}
+ -t 0.53144 -s 2 -d 3 -p tcp -e 1040 -c 0 -i 6 -a 0 -x {0.0 3.1 3 ------- null}
- -t 0.53144 -s 2 -d 3 -p tcp -e 1040 -c 0 -i 6 -a 0 -x {0.0 3.1 3 ------- null}
h -t 0.53144 -s 2 -d 3 -p tcp -e 1040 -c 0 -i 6 -a 0 -x {0.0 3.1 -1 ------- null}
- -t 0.533600000000001 -s 0 -d 2 -p tcp -e 1040 -c 0 -i 8 -a 0 -x {0.0 3.1 5 ------- null}
h -t 0.533600000000001 -s 0 -d 2 -p tcp -e 1040 -c 0 -i 8 -a 0 -x {0.0 3.1 -1 ------- null}
r -t 0.535600000000001 -s 0 -d 2 -p tcp -e 1040 -c 0 -i 7 -a 0 -x {0.0 3.1 4 ------- null}
+ -t 0.535600000000001 -s 2 -d 3 -p tcp -e 1040 -c 0 -i 7 -a 0 -x {0.0 3.1 4 ------- null}
- -t 0.535600000000001 -s 2 -d 3 -p tcp -e 1040 -c 0 -i 7 -a 0 -x {0.0 3.1 4 ------- null}
h -t 0.535600000000001 -s 2 -d 3 -p tcp -e 1040 -c 0 -i 7 -a 0 -x {0.0 3.1 -1 ------- null}
r -t 0.537600000000001 -s 2 -d 3 -p tcp -e 1040 -c 0 -i 6 -a 0 -x {0.0 3.1 3 ------- null}
+ -t 0.537600000000001 -s 3 -d 2 -p ack -e 40 -c 0 -i 10 -a 0 -x {3.1 0.0 3 ------- null}
- -t 0.537600000000001 -s 3 -d 2 -p ack -e 40 -c 0 -i 10 -a 0 -x {3.1 0.0 3 ------- null}
h -t 0.537600000000001 -s 3 -d 2 -p ack -e 40 -c 0 -i 10 -a 0 -x {3.1 0.0 -1 ------- null}
- -t 0.537760000000001 -s 0 -d 2 -p tcp -e 1040 -c 0 -i 9 -a 0 -x {0.0 3.1 6 ------- null}
h -t 0.537760000000001 -s 0 -d 2 -p tcp -e 1040 -c 0 -i 9 -a 0 -x {0.0 3.1 -1 ------- null}
r -t 0.539760000000001 -s 0 -d 2 -p tcp -e 1040 -c 0 -i 8 -a 0 -x {0.0 3.1 5 ------- null}
+ -t 0.539760000000001 -s 2 -d 3 -p tcp -e 1040 -c 0 -i 8 -a 0 -x {0.0 3.1 5 ------- null}
- -t 0.539760000000001 -s 2 -d 3 -p tcp -e 1040 -c 0 -i 8 -a 0 -x {0.0 3.1 5 ------- null}
h -t 0.539760000000001 -s 2 -d 3 -p tcp -e 1040 -c 0 -i 8 -a 0 -x {0.0 3.1 -1 ------- null}
r -t 0.539760000000001 -s 3 -d 2 -p ack -e 40 -c 0 -i 10 -a 0 -x {3.1 0.0 3 ------- null}
+ -t 0.539760000000001 -s 2 -d 0 -p ack -e 40 -c 0 -i 10 -a 0 -x {3.1 0.0 3 ------- null}
- -t 0.539760000000001 -s 2 -d 0 -p ack -e 40 -c 0 -i 10 -a 0 -x {3.1 0.0 3 ------- null}
h -t 0.539760000000001 -s 2 -d 0 -p ack -e 40 -c 0 -i 10 -a 0 -x {3.1 0.0 -1 ------- null}
r -t 0.541760000000001 -s 2 -d 3 -p tcp -e 1040 -c 0 -i 7 -a 0 -x {0.0 3.1 4 ------- null}
+ -t 0.541760000000001 -s 3 -d 2 -p ack -e 40 -c 0 -i 11 -a 0 -x {3.1 0.0 4 ------- null}
- -t 0.541760000000001 -s 3 -d 2 -p ack -e 40 -c 0 -i 11 -a 0 -x {3.1 0.0 4 ------- null}
h -t 0.541760000000001 -s 3 -d 2 -p ack -e 40 -c 0 -i 11 -a 0 -x {3.1 0.0 -1 ------- null}
r -t 0.541920000000001 -s 2 -d 0 -p ack -e 40 -c 0 -i 10 -a 0 -x {3.1 0.0 3 ------- null}
+ -t 0.541920000000001 -s 0 -d 2 -p tcp -e 1040 -c 0 -i 12 -a 0 -x {0.0 3.1 7 ------- null}
- -t 0.541920000000001 -s 0 -d 2 -p tcp -e 1040 -c 0 -i 12 -a 0 -x {0.0 3.1 7 ------- null}
h -t 0.541920000000001 -s 0 -d 2 -p tcp -e 1040 -c 0 -i 12 -a 0 -x {0.0 3.1 -1 ------- null}
+ -t 0.541920000000001 -s 0 -d 2 -p tcp -e 1040 -c 0 -i 13 -a 0 -x {0.0 3.1 8 ------- null}
r -t 0.543920000000001 -s 0 -d 2 -p tcp -e 1040 -c 0 -i 9 -a 0 -x {0.0 3.1 6 ------- null}
+ -t 0.543920000000001 -s 2 -d 3 -p tcp -e 1040 -c 0 -i 9 -a 0 -x {0.0 3.1 6 ------- null}
- -t 0.543920000000001 -s 2 -d 3 -p tcp -e 1040 -c 0 -i 9 -a 0 -x {0.0 3.1 6 ------- null}
h -t 0.543920000000001 -s 2 -d 3 -p tcp -e 1040 -c 0 -i 9 -a 0 -x {0.0 3.1 -1 ------- null}
r -t 0.543920000000001 -s 3 -d 2 -p ack -e 40 -c 0 -i 11 -a 0 -x {3.1 0.0 4 ------- null}
+ -t 0.543920000000001 -s 2 -d 0 -p ack -e 40 -c 0 -i 11 -a 0 -x {3.1 0.0 4 ------- null}
- -t 0.543920000000001 -s 2 -d 0 -p ack -e 40 -c 0 -i 11 -a 0 -x {3.1 0.0 4 ------- null}
h -t 0.543920000000001 -s 2 -d 0 -p ack -e 40 -c 0 -i 11 -a 0 -x {3.1 0.0 -1 ------- null}
r -t 0.545920000000001 -s 2 -d 3 -p tcp -e 1040 -c 0 -i 8 -a 0 -x {0.0 3.1 5 ------- null}
+ -t 0.545920000000001 -s 3 -d 2 -p ack -e 40 -c 0 -i 14 -a 0 -x {3.1 0.0 5 ------- null}
- -t 0.545920000000001 -s 3 -d 2 -p ack -e 40 -c 0 -i 14 -a 0 -x {3.1 0.0 5 ------- null}
h -t 0.545920000000001 -s 3 -d 2 -p ack -e 40 -c 0 -i 14 -a 0 -x {3.1 0.0 -1 ------- null}
- -t 0.546080000000001 -s 0 -d 2 -p tcp -e 1040 -c 0 -i 13 -a 0 -x {0.0 3.1 8 ------- null}
h -t 0.546080000000001 -s 0 -d 2 -p tcp -e 1040 -c 0 -i 13 -a 0 -x {0.0 3.1 -1 ------- null}
r -t 0.546080000000001 -s 2 -d 0 -p ack -e 40 -c 0 -i 11 -a 0 -x {3.1 0.0 4 ------- null}
+ -t 0.546080000000001 -s 0 -d 2 -p tcp -e 1040 -c 0 -i 15 -a 0 -x {0.0 3.1 9 ------- null}
+ -t 0.546080000000001 -s 0 -d 2 -p tcp -e 1040 -c 0 -i 16 -a 0 -x {0.0 3.1 10 ------- null}
r -t 0.548080000000001 -s 0 -d 2 -p tcp -e 1040 -c 0 -i 12 -a 0 -x {0.0 3.1 7 ------- null}
+ -t 0.548080000000001 -s 2 -d 3 -p tcp -e 1040 -c 0 -i 12 -a 0 -x {0.0 3.1 7 ------- null}
- -t 0.548080000000001 -s 2 -d 3 -p tcp -e 1040 -c 0 -i 12 -a 0 -x {0.0 3.1 7 ------- null}
h -t 0.548080000000001 -s 2 -d 3 -p tcp -e 1040 -c 0 -i 12 -a 0 -x {0.0 3.1 -1 ------- null}
r -t 0.548080000000001 -s 3 -d 2 -p ack -e 40 -c 0 -i 14 -a 0 -x {3.1 0.0 5 ------- null}
+ -t 0.548080000000001 -s 2 -d 0 -p ack -e 40 -c 0 -i 14 -a 0 -x {3.1 0.0 5 ------- null}
- -t 0.548080000000001 -s 2 -d 0 -p ack -e 40 -c 0 -i 14 -a 0 -x {3.1 0.0 5 ------- null}
h -t 0.548080000000001 -s 2 -d 0 -p ack -e 40 -c 0 -i 14 -a 0 -x {3.1 0.0 -1 ------- null}
r -t 0.550080000000001 -s 2 -d 3 -p tcp -e 1040 -c 0 -i 9 -a 0 -x {0.0 3.1 6 ------- null}
+ -t 0.550080000000001 -s 3 -d 2 -p ack -e 40 -c 0 -i 17 -a 0 -x {3.1 0.0 6 ------- null}
- -t 0.550080000000001 -s 3 -d 2 -p ack -e 40 -c 0 -i 17 -a 0 -x {3.1 0.0 6 ------- null}
h -t 0.550080000000001 -s 3 -d 2 -p ack -e 40 -c 0 -i 17 -a 0 -x {3.1 0.0 -1 ------- null}
- -t 0.550240000000001 -s 0 -d 2 -p tcp -e 1040 -c 0 -i 15 -a 0 -x {0.0 3.1 9 ------- null}
h -t 0.550240000000001 -s 0 -d 2 -p tcp -e 1040 -c 0 -i 15 -a 0 -x {0.0 3.1 -1 ------- null}
r -t 0.550240000000001 -s 2 -d 0 -p ack -e 40 -c 0 -i 14 -a 0 -x {3.1 0.0 5 ------- null}
+ -t 0.550240000000001 -s 0 -d 2 -p tcp -e 1040 -c 0 -i 18 -a 0 -x {0.0 3.1 11 ------- null}
+ -t 0.550240000000001 -s 0 -d 2 -p tcp -e 1040 -c 0 -i 19 -a 0 -x {0.0 3.1 12 ------- null}
r -t 0.552240000000001 -s 0 -d 2 -p tcp -e 1040 -c 0 -i 13 -a 0 -x {0.0 3.1 8 ------- null}
+ -t 0.552240000000001 -s 2 -d 3 -p tcp -e 1040 -c 0 -i 13 -a 0 -x {0.0 3.1 8 ------- null}
- -t 0.552240000000001 -s 2 -d 3 -p tcp -e 1040 -c 0 -i 13 -a 0 -x {0.0 3.1 8 ------- null}
h -t 0.552240000000001 -s 2 -d 3 -p tcp -e 1040 -c 0 -i 13 -a 0 -x {0.0 3.1 -1 ------- null}
r -t 0.552240000000001 -s 3 -d 2 -p ack -e 40 -c 0 -i 17 -a 0 -x {3.1 0.0 6 ------- null}
+ -t 0.552240000000001 -s 2 -d 0 -p ack -e 40 -c 0 -i 17 -a 0 -x {3.1 0.0 6 ------- null}
- -t 0.552240000000001 -s 2 -d 0 -p ack -e 40 -c 0 -i 17 -a 0 -x {3.1 0.0 6 ------- null}
h -t 0.552240000000001 -s 2 -d 0 -p ack -e 40 -c 0 -i 17 -a 0 -x {3.1 0.0 -1 ------- null}
r -t 0.554240000000001 -s 2 -d 3 -p tcp -e 1040 -c 0 -i 12 -a 0 -x {0.0 3.1 7 ------- null}
+ -t 0.554240000000001 -s 3 -d 2 -p ack -e 40 -c 0 -i 20 -a 0 -x {3.1 0.0 7 ------- null}
- -t 0.554240000000001 -s 3 -d 2 -p ack -e 40 -c 0 -i 20 -a 0 -x {3.1 0.0 7 ------- null}
h -t 0.554240000000001 -s 3 -d 2 -p ack -e 40 -c 0 -i 20 -a 0 -x {3.1 0.0 -1 ------- null}
- -t 0.554400000000001 -s 0 -d 2 -p tcp -e 1040 -c 0 -i 16 -a 0 -x {0.0 3.1 10 ------- null}
h -t 0.554400000000001 -s 0 -d 2 -p tcp -e 1040 -c 0 -i 16 -a 0 -x {0.0 3.1 -1 ------- null}
r -t 0.554400000000001 -s 2 -d 0 -p ack -e 40 -c 0 -i 17 -a 0 -x {3.1 0.0 6 ------- null}
+ -t 0.554400000000001 -s 0 -d 2 -p tcp -e 1040 -c 0 -i 21 -a 0 -x {0.0 3.1 13 ------- null}
+ -t 0.554400000000001 -s 0 -d 2 -p tcp -e 1040 -c 0 -i 22 -a 0 -x {0.0 3.1 14 ------- null}
r -t 0.556400000000001 -s 0 -d 2 -p tcp -e 1040 -c 0 -i 15 -a 0 -x {0.0 3.1 9 ------- null}
+ -t 0.556400000000001 -s 2 -d 3 -p tcp -e 1040 -c 0 -i 15 -a 0 -x {0.0 3.1 9 ------- null}
- -t 0.556400000000001 -s 2 -d 3 -p tcp -e 1040 -c 0 -i 15 -a 0 -x {0.0 3.1 9 ------- null}
h -t 0.556400000000001 -s 2 -d 3 -p tcp -e 1040 -c 0 -i 15 -a 0 -x {0.0 3.1 -1 ------- null}
r -t 0.556400000000001 -s 3 -d 2 -p ack -e 40 -c 0 -i 20 -a 0 -x {3.1 0.0 7 ------- null}
+ -t 0.556400000000001 -s 2 -d 0 -p ack -e 40 -c 0 -i 20 -a 0 -x {3.1 0.0 7 ------- null}
- -t 0.556400000000001 -s 2 -d 0 -p ack -e 40 -c 0 -i 20 -a 0 -x {3.1 0.0 7 ------- null}
h -t 0.556400000000001 -s 2 -d 0 -p ack -e 40 -c 0 -i 20 -a 0 -x {3.1 0.0 -1 ------- null}
r -t 0.558400000000001 -s 2 -d 3 -p tcp -e 1040 -c 0 -i 13 -a 0 -x {0.0 3.1 8 ------- null}
+ -t 0.558400000000001 -s 3 -d 2 -p ack -e 40 -c 0 -i 23 -a 0 -x {3.1 0.0 8 ------- null}
- -t 0.558400000000001 -s 3 -d 2 -p ack -e 40 -c 0 -i 23 -a 0 -x {3.1 0.0 8 ------- null}
h -t 0.558400000000001 -s 3 -d 2 -p ack -e 40 -c 0 -i 23 -a 0 -x {3.1 0.0 -1 ------- null}
- -t 0.558560000000001 -s 0 -d 2 -p tcp -e 1040 -c 0 -i 18 -a 0 -x {0.0 3.1 11 ------- null}
h -t 0.558560000000001 -s 0 -d 2 -p tcp -e 1040 -c 0 -i 18 -a 0 -x {0.0 3.1 -1 ------- null}
r -t 0.558560000000001 -s 2 -d 0 -p ack -e 40 -c 0 -i 20 -a 0 -x {3.1 0.0 7 ------- null}
+ -t 0.558560000000001 -s 0 -d 2 -p tcp -e 1040 -c 0 -i 24 -a 0 -x {0.0 3.1 15 ------- null}
+ -t 0.558560000000001 -s 0 -d 2 -p tcp -e 1040 -c 0 -i 25 -a 0 -x {0.0 3.1 16 ------- null}
d -t 0.558560000000001 -s 0 -d 2 -p tcp -e 1040 -c 0 -i 25 -a 0 -x {0.0 3.1 16 ------- null}
r -t 0.560560000000001 -s 0 -d 2 -p tcp -e 1040 -c 0 -i 16 -a 0 -x {0.0 3.1 10 ------- null}
+ -t 0.560560000000001 -s 2 -d 3 -p tcp -e 1040 -c 0 -i 16 -a 0 -x {0.0 3.1 10 ------- null}
- -t 0.560560000000001 -s 2 -d 3 -p tcp -e 1040 -c 0 -i 16 -a 0 -x {0.0 3.1 10 ------- null}
h -t 0.560560000000001 -s 2 -d 3 -p tcp -e 1040 -c 0 -i 16 -a 0 -x {0.0 3.1 -1 ------- null}
r -t 0.560560000000001 -s 3 -d 2 -p ack -e 40 -c 0 -i 23 -a 0 -x {3.1 0.0 8 ------- null}
+ -t 0.560560000000001 -s 2 -d 0 -p ack -e 40 -c 0 -i 23 -a 0 -x {3.1 0.0 8 ------- null}
- -t 0.560560000000001 -s 2 -d 0 -p ack -e 40 -c 0 -i 23 -a 0 -x {3.1 0.0 8 ------- null}
h -t 0.560560000000001 -s 2 -d 0 -p ack -e 40 -c 0 -i 23 -a 0 -x {3.1 0.0 -1 ------- null}
r -t 0.562560000000001 -s 2 -d 3 -p tcp -e 1040 -c 0 -i 15 -a 0 -x {0.0 3.1 9 ------- null}
+ -t 0.562560000000001 -s 3 -d 2 -p ack -e 40 -c 0 -i 26 -a 0 -x {3.1 0.0 9 ------- null}
- -t 0.562560000000001 -s 3 -d 2 -p ack -e 40 -c 0 -i 26 -a 0 -x {3.1 0.0 9 ------- null}
h -t 0.562560000000001 -s 3 -d 2 -p ack -e 40 -c 0 -i 26 -a 0 -x {3.1 0.0 -1 ------- null}
- -t 0.562720000000001 -s 0 -d 2 -p tcp -e 1040 -c 0 -i 19 -a 0 -x {0.0 3.1 12 ------- null}
h -t 0.562720000000001 -s 0 -d 2 -p tcp -e 1040 -c 0 -i 19 -a 0 -x {0.0 3.1 -1 ------- null}
r -t 0.562720000000001 -s 2 -d 0 -p ack -e 40 -c 0 -i 23 -a 0 -x {3.1 0.0 8 ------- null}
+ -t 0.562720000000001 -s 0 -d 2 -p tcp -e 1040 -c 0 -i 27 -a 0 -x {0.0 3.1 17 ------- null}
+ -t 0.562720000000001 -s 0 -d 2 -p tcp -e 1040 -c 0 -i 28 -a 0 -x {0.0 3.1 18 ------- null}
d -t 0.562720000000001 -s 0 -d 2 -p tcp -e 1040 -c 0 -i 28 -a 0 -x {0.0 3.1 18 ------- null}
r -t 0.564720000000001 -s 0 -d 2 -p tcp -e 1040 -c 0 -i 18 -a 0 -x {0.0 3.1 11 ------- null}
+ -t 0.564720000000001 -s 2 -d 3 -p tcp -e 1040 -c 0 -i 18 -a 0 -x {0.0 3.1 11 ------- null}
- -t 0.564720000000001 -s 2 -d 3 -p tcp -e 1040 -c 0 -i 18 -a 0 -x {0.0 3.1 11 ------- null}
h -t 0.564720000000001 -s 2 -d 3 -p tcp -e 1040 -c 0 -i 18 -a 0 -x {0.0 3.1 -1 ------- null}
r -t 0.564720000000001 -s 3 -d 2 -p ack -e 40 -c 0 -i 26 -a 0 -x {3.1 0.0 9 ------- null}
+ -t 0.564720000000001 -s 2 -d 0 -p ack -e 40 -c 0 -i 26 -a 0 -x {3.1 0.0 9 ------- null}
- -t 0.564720000000001 -s 2 -d 0 -p ack -e 40 -c 0 -i 26 -a 0 -x {3.1 0.0 9 ------- null}
h -t 0.564720000000001 -s 2 -d 0 -p ack -e 40 -c 0 -i 26 -a 0 -x {3.1 0.0 -1 ------- null}
r -t 0.566720000000001 -s 2 -d 3 -p tcp -e 1040 -c 0 -i 16 -a 0 -x {0.0 3.1 10 ------- null}
+ -t 0.566720000000001 -s 3 -d 2 -p ack -e 40 -c 0 -i 29 -a 0 -x {3.1 0.0 10 ------- null}
- -t 0.566720000000001 -s 3 -d 2 -p ack -e 40 -c 0 -i 29 -a 0 -x {3.1 0.0 10 ------- null}
h -t 0.566720000000001 -s 3 -d 2 -p ack -e 40 -c 0 -i 29 -a 0 -x {3.1 0.0 -1 ------- null}
- -t 0.566880000000001 -s 0 -d 2 -p tcp -e 1040 -c 0 -i 21 -a 0 -x {0.0 3.1 13 ------- null}
h -t 0.566880000000001 -s 0 -d 2 -p tcp -e 1040 -c 0 -i 21 -a 0 -x {0.0 3.1 -1 ------- null}
r -t 0.566880000000001 -s 2 -d 0 -p ack -e 40 -c 0 -i 26 -a 0 -x {3.1 0.0 9 ------- null}
+ -t 0.566880000000001 -s 0 -d 2 -p tcp -e 1040 -c 0 -i 30 -a 0 -x {0.0 3.1 19 ------- null}
+ -t 0.566880000000001 -s 0 -d 2 -p tcp -e 1040 -c 0 -i 31 -a 0 -x {0.0 3.1 20 ------- null}
d -t 0.566880000000001 -s 0 -d 2 -p tcp -e 1040 -c 0 -i 31 -a 0 -x {0.0 3.1 20 ------- null}
r -t 0.568880000000001 -s 0 -d 2 -p tcp -e 1040 -c 0 -i 19 -a 0 -x {0.0 3.1 12 ------- null}
+ -t 0.568880000000001 -s 2 -d 3 -p tcp -e 1040 -c 0 -i 19 -a 0 -x {0.0 3.1 12 ------- null}
- -t 0.568880000000001 -s 2 -d 3 -p tcp -e 1040 -c 0 -i 19 -a 0 -x {0.0 3.1 12 ------- null}
h -t 0.568880000000001 -s 2 -d 3 -p tcp -e 1040 -c 0 -i 19 -a 0 -x {0.0 3.1 -1 ------- null}
r -t 0.568880000000001 -s 3 -d 2 -p ack -e 40 -c 0 -i 29 -a 0 -x {3.1 0.0 10 ------- null}
+ -t 0.568880000000001 -s 2 -d 0 -p ack -e 40 -c 0 -i 29 -a 0 -x {3.1 0.0 10 ------- null}
- -t 0.568880000000001 -s 2 -d 0 -p ack -e 40 -c 0 -i 29 -a 0 -x {3.1 0.0 10 ------- null}
h -t 0.568880000000001 -s 2 -d 0 -p ack -e 40 -c 0 -i 29 -a 0 -x {3.1 0.0 -1 ------- null}
r -t 0.570880000000001 -s 2 -d 3 -p tcp -e 1040 -c 0 -i 18 -a 0 -x {0.0 3.1 11 ------- null}
+ -t 0.570880000000001 -s 3 -d 2 -p ack -e 40 -c 0 -i 32 -a 0 -x {3.1 0.0 11 ------- null}
- -t 0.570880000000001 -s 3 -d 2 -p ack -e 40 -c 0 -i 32 -a 0 -x {3.1 0.0 11 ------- null}
h -t 0.570880000000001 -s 3 -d 2 -p ack -e 40 -c 0 -i 32 -a 0 -x {3.1 0.0 -1 ------- null}
- -t 0.571040000000001 -s 0 -d 2 -p tcp -e 1040 -c 0 -i 22 -a 0 -x {0.0 3.1 14 ------- null}
h -t 0.571040000000001 -s 0 -d 2 -p tcp -e 1040 -c 0 -i 22 -a 0 -x {0.0 3.1 -1 ------- null}
r -t 0.571040000000001 -s 2 -d 0 -p ack -e 40 -c 0 -i 29 -a 0 -x {3.1 0.0 10 ------- null}
+ -t 0.571040000000001 -s 0 -d 2 -p tcp -e 1040 -c 0 -i 33 -a 0 -x {0.0 3.1 21 ------- null}
+ -t 0.571040000000001 -s 0 -d 2 -p tcp -e 1040 -c 0 -i 34 -a 0 -x {0.0 3.1 22 ------- null}
d -t 0.571040000000001 -s 0 -d 2 -p tcp -e 1040 -c 0 -i 34 -a 0 -x {0.0 3.1 22 ------- null}
r -t 0.573040000000001 -s 0 -d 2 -p tcp -e 1040 -c 0 -i 21 -a 0 -x {0.0 3.1 13 ------- null}
+ -t 0.573040000000001 -s 2 -d 3 -p tcp -e 1040 -c 0 -i 21 -a 0 -x {0.0 3.1 13 ------- null}
- -t 0.573040000000001 -s 2 -d 3 -p tcp -e 1040 -c 0 -i 21 -a 0 -x {0.0 3.1 13 ------- null}
h -t 0.573040000000001 -s 2 -d 3 -p tcp -e 1040 -c 0 -i 21 -a 0 -x {0.0 3.1 -1 ------- null}
r -t 0.573040000000001 -s 3 -d 2 -p ack -e 40 -c 0 -i 32 -a 0 -x {3.1 0.0 11 ------- null}
+ -t 0.573040000000001 -s 2 -d 0 -p ack -e 40 -c 0 -i 32 -a 0 -x {3.1 0.0 11 ------- null}
- -t 0.573040000000001 -s 2 -d 0 -p ack -e 40 -c 0 -i 32 -a 0 -x {3.1 0.0 11 ------- null}
h -t 0.573040000000001 -s 2 -d 0 -p ack -e 40 -c 0 -i 32 -a 0 -x {3.1 0.0 -1 ------- null}
r -t 0.575040000000001 -s 2 -d 3 -p tcp -e 1040 -c 0 -i 19 -a 0 -x {0.0 3.1 12 ------- null}
+ -t 0.575040000000001 -s 3 -d 2 -p ack -e 40 -c 0 -i 35 -a 0 -x {3.1 0.0 12 ------- null}
- -t 0.575040000000001 -s 3 -d 2 -p ack -e 40 -c 0 -i 35 -a 0 -x {3.1 0.0 12 ------- null}
h -t 0.575040000000001 -s 3 -d 2 -p ack -e 40 -c 0 -i 35 -a 0 -x {3.1 0.0 -1 ------- null}
- -t 0.575200000000001 -s 0 -d 2 -p tcp -e 1040 -c 0 -i 24 -a 0 -x {0.0 3.1 15 ------- null}
h -t 0.575200000000001 -s 0 -d 2 -p tcp -e 1040 -c 0 -i 24 -a 0 -x {0.0 3.1 -1 ------- null}
r -t 0.575200000000001 -s 2 -d 0 -p ack -e 40 -c 0 -i 32 -a 0 -x {3.1 0.0 11 ------- null}
+ -t 0.575200000000001 -s 0 -d 2 -p tcp -e 1040 -c 0 -i 36 -a 0 -x {0.0 3.1 23 ------- null}
+ -t 0.575200000000001 -s 0 -d 2 -p tcp -e 1040 -c 0 -i 37 -a 0 -x {0.0 3.1 24 ------- null}
d -t 0.575200000000001 -s 0 -d 2 -p tcp -e 1040 -c 0 -i 37 -a 0 -x {0.0 3.1 24 ------- null}
r -t 0.577200000000001 -s 0 -d 2 -p tcp -e 1040 -c 0 -i 22 -a 0 -x {0.0 3.1 14 ------- null}
+ -t 0.577200000000001 -s 2 -d 3 -p tcp -e 1040 -c 0 -i 22 -a 0 -x {0.0 3.1 14 ------- null}
- -t 0.577200000000001 -s 2 -d 3 -p tcp -e 1040 -c 0 -i 22 -a 0 -x {0.0 3.1 14 ------- null}
h -t 0.577200000000001 -s 2 -d 3 -p tcp -e 1040 -c 0 -i 22 -a 0 -x {0.0 3.1 -1 ------- null}
r -t 0.577200000000001 -s 3 -d 2 -p ack -e 40 -c 0 -i 35 -a 0 -x {3.1 0.0 12 ------- null}
+ -t 0.577200000000001 -s 2 -d 0 -p ack -e 40 -c 0 -i 35 -a 0 -x {3.1 0.0 12 ------- null}
- -t 0.577200000000001 -s 2 -d 0 -p ack -e 40 -c 0 -i 35 -a 0 -x {3.1 0.0 12 ------- null}
h -t 0.577200000000001 -s 2 -d 0 -p ack -e 40 -c 0 -i 35 -a 0 -x {3.1 0.0 -1 ------- null}
r -t 0.579200000000001 -s 2 -d 3 -p tcp -e 1040 -c 0 -i 21 -a 0 -x {0.0 3.1 13 ------- null}
+ -t 0.579200000000001 -s 3 -d 2 -p ack -e 40 -c 0 -i 38 -a 0 -x {3.1 0.0 13 ------- null}
- -t 0.579200000000001 -s 3 -d 2 -p ack -e 40 -c 0 -i 38 -a 0 -x {3.1 0.0 13 ------- null}
h -t 0.579200000000001 -s 3 -d 2 -p ack -e 40 -c 0 -i 38 -a 0 -x {3.1 0.0 -1 ------- null}
- -t 0.579360000000001 -s 0 -d 2 -p tcp -e 1040 -c 0 -i 27 -a 0 -x {0.0 3.1 17 ------- null}
h -t 0.579360000000001 -s 0 -d 2 -p tcp -e 1040 -c 0 -i 27 -a 0 -x {0.0 3.1 -1 ------- null}
r -t 0.579360000000001 -s 2 -d 0 -p ack -e 40 -c 0 -i 35 -a 0 -x {3.1 0.0 12 ------- null}
+ -t 0.579360000000001 -s 0 -d 2 -p tcp -e 1040 -c 0 -i 39 -a 0 -x {0.0 3.1 25 ------- null}
+ -t 0.579360000000001 -s 0 -d 2 -p tcp -e 1040 -c 0 -i 40 -a 0 -x {0.0 3.1 26 ------- null}
d -t 0.579360000000001 -s 0 -d 2 -p tcp -e 1040 -c 0 -i 40 -a 0 -x {0.0 3.1 26 ------- null}
r -t 0.581360000000001 -s 0 -d 2 -p tcp -e 1040 -c 0 -i 24 -a 0 -x {0.0 3.1 15 ------- null}
+ -t 0.581360000000001 -s 2 -d 3 -p tcp -e 1040 -c 0 -i 24 -a 0 -x {0.0 3.1 15 ------- null}
- -t 0.581360000000001 -s 2 -d 3 -p tcp -e 1040 -c 0 -i 24 -a 0 -x {0.0 3.1 15 ------- null}
h -t 0.581360000000001 -s 2 -d 3 -p tcp -e 1040 -c 0 -i 24 -a 0 -x {0.0 3.1 -1 ------- null}
r -t 0.581360000000001 -s 3 -d 2 -p ack -e 40 -c 0 -i 38 -a 0 -x {3.1 0.0 13 ------- null}
+ -t 0.581360000000001 -s 2 -d 0 -p ack -e 40 -c 0 -i 38 -a 0 -x {3.1 0.0 13 ------- null}
- -t 0.581360000000001 -s 2 -d 0 -p ack -e 40 -c 0 -i 38 -a 0 -x {3.1 0.0 13 ------- null}
h -t 0.581360000000001 -s 2 -d 0 -p ack -e 40 -c 0 -i 38 -a 0 -x {3.1 0.0 -1 ------- null}
r -t 0.583360000000001 -s 2 -d 3 -p tcp -e 1040 -c 0 -i 22 -a 0 -x {0.0 3.1 14 ------- null}
+ -t 0.583360000000001 -s 3 -d 2 -p ack -e 40 -c 0 -i 41 -a 0 -x {3.1 0.0 14 ------- null}
- -t 0.583360000000001 -s 3 -d 2 -p ack -e 40 -c 0 -i 41 -a 0 -x {3.1 0.0 14 ------- null}
h -t 0.583360000000001 -s 3 -d 2 -p ack -e 40 -c 0 -i 41 -a 0 -x {3.1 0.0 -1 ------- null}
- -t 0.583520000000001 -s 0 -d 2 -p tcp -e 1040 -c 0 -i 30 -a 0 -x {0.0 3.1 19 ------- null}
h -t 0.583520000000001 -s 0 -d 2 -p tcp -e 1040 -c 0 -i 30 -a 0 -x {0.0 3.1 -1 ------- null}
r -t 0.583520000000001 -s 2 -d 0 -p ack -e 40 -c 0 -i 38 -a 0 -x {3.1 0.0 13 ------- null}
+ -t 0.583520000000001 -s 0 -d 2 -p tcp -e 1040 -c 0 -i 42 -a 0 -x {0.0 3.1 27 ------- null}
+ -t 0.583520000000001 -s 0 -d 2 -p tcp -e 1040 -c 0 -i 43 -a 0 -x {0.0 3.1 28 ------- null}
d -t 0.583520000000001 -s 0 -d 2 -p tcp -e 1040 -c 0 -i 43 -a 0 -x {0.0 3.1 28 ------- null}
r -t 0.585520000000001 -s 0 -d 2 -p tcp -e 1040 -c 0 -i 27 -a 0 -x {0.0 3.1 17 ------- null}
+ -t 0.585520000000001 -s 2 -d 3 -p tcp -e 1040 -c 0 -i 27 -a 0 -x {0.0 3.1 17 ------- null}
- -t 0.585520000000001 -s 2 -d 3 -p tcp -e 1040 -c 0 -i 27 -a 0 -x {0.0 3.1 17 ------- null}
h -t 0.585520000000001 -s 2 -d 3 -p tcp -e 1040 -c 0 -i 27 -a 0 -x {0.0 3.1 -1 ------- null}
r -t 0.585520000000001 -s 3 -d 2 -p ack -e 40 -c 0 -i 41 -a 0 -x {3.1 0.0 14 ------- null}
+ -t 0.585520000000001 -s 2 -d 0 -p ack -e 40 -c 0 -i 41 -a 0 -x {3.1 0.0 14 ------- null}
- -t 0.585520000000001 -s 2 -d 0 -p ack -e 40 -c 0 -i 41 -a 0 -x {3.1 0.0 14 ------- null}
h -t 0.585520000000001 -s 2 -d 0 -p ack -e 40 -c 0 -i 41 -a 0 -x {3.1 0.0 -1 ------- null}
r -t 0.587520000000001 -s 2 -d 3 -p tcp -e 1040 -c 0 -i 24 -a 0 -x {0.0 3.1 15 ------- null}
+ -t 0.587520000000001 -s 3 -d 2 -p ack -e 40 -c 0 -i 44 -a 0 -x {3.1 0.0 15 ------- null}
- -t 0.587520000000001 -s 3 -d 2 -p ack -e 40 -c 0 -i 44 -a 0 -x {3.1 0.0 15 ------- null}
h -t 0.587520000000001 -s 3 -d 2 -p ack -e 40 -c 0 -i 44 -a 0 -x {3.1 0.0 -1 ------- null}
- -t 0.587680000000001 -s 0 -d 2 -p tcp -e 1040 -c 0 -i 33 -a 0 -x {0.0 3.1 21 ------- null}
h -t 0.587680000000001 -s 0 -d 2 -p tcp -e 1040 -c 0 -i 33 -a 0 -x {0.0 3.1 -1 ------- null}
r -t 0.587680000000001 -s 2 -d 0 -p ack -e 40 -c 0 -i 41 -a 0 -x {3.1 0.0 14 ------- null}
+ -t 0.587680000000001 -s 0 -d 2 -p tcp -e 1040 -c 0 -i 45 -a 0 -x {0.0 3.1 29 ------- null}
+ -t 0.587680000000001 -s 0 -d 2 -p tcp -e 1040 -c 0 -i 46 -a 0 -x {0.0 3.1 30 ------- null}
d -t 0.587680000000001 -s 0 -d 2 -p tcp -e 1040 -c 0 -i 46 -a 0 -x {0.0 3.1 30 ------- null}
r -t 0.589680000000001 -s 0 -d 2 -p tcp -e 1040 -c 0 -i 30 -a 0 -x {0.0 3.1 19 ------- null}
+ -t 0.589680000000001 -s 2 -d 3 -p tcp -e 1040 -c 0 -i 30 -a 0 -x {0.0 3.1 19 ------- null}
- -t 0.589680000000001 -s 2 -d 3 -p tcp -e 1040 -c 0 -i 30 -a 0 -x {0.0 3.1 19 ------- null}
h -t 0.589680000000001 -s 2 -d 3 -p tcp -e 1040 -c 0 -i 30 -a 0 -x {0.0 3.1 -1 ------- null}
r -t 0.589680000000001 -s 3 -d 2 -p ack -e 40 -c 0 -i 44 -a 0 -x {3.1 0.0 15 ------- null}
+ -t 0.589680000000001 -s 2 -d 0 -p ack -e 40 -c 0 -i 44 -a 0 -x {3.1 0.0 15 ------- null}
- -t 0.589680000000001 -s 2 -d 0 -p ack -e 40 -c 0 -i 44 -a 0 -x {3.1 0.0 15 ------- null}
h -t 0.589680000000001 -s 2 -d 0 -p ack -e 40 -c 0 -i 44 -a 0 -x {3.1 0.0 -1 ------- null}
r -t 0.591680000000001 -s 2 -d 3 -p tcp -e 1040 -c 0 -i 27 -a 0 -x {0.0 3.1 17 ------- null}
+ -t 0.591680000000001 -s 3 -d 2 -p ack -e 40 -c 0 -i 47 -a 0 -x {3.1 0.0 15 ------- null}
- -t 0.591680000000001 -s 3 -d 2 -p ack -e 40 -c 0 -i 47 -a 0 -x {3.1 0.0 15 ------- null}
h -t 0.591680000000001 -s 3 -d 2 -p ack -e 40 -c 0 -i 47 -a 0 -x {3.1 0.0 -1 ------- null}
- -t 0.591840000000001 -s 0 -d 2 -p tcp -e 1040 -c 0 -i 36 -a 0 -x {0.0 3.1 23 ------- null}
h -t 0.591840000000001 -s 0 -d 2 -p tcp -e 1040 -c 0 -i 36 -a 0 -x {0.0 3.1 -1 ------- null}
r -t 0.591840000000001 -s 2 -d 0 -p ack -e 40 -c 0 -i 44 -a 0 -x {3.1 0.0 15 ------- null}
+ -t 0.591840000000001 -s 0 -d 2 -p tcp -e 1040 -c 0 -i 48 -a 0 -x {0.0 3.1 31 ------- null}
+ -t 0.591840000000001 -s 0 -d 2 -p tcp -e 1040 -c 0 -i 49 -a 0 -x {0.0 3.1 32 ------- null}
d -t 0.591840000000001 -s 0 -d 2 -p tcp -e 1040 -c 0 -i 49 -a 0 -x {0.0 3.1 32 ------- null}
r -t 0.593840000000001 -s 0 -d 2 -p tcp -e 1040 -c 0 -i 33 -a 0 -x {0.0 3.1 21 ------- null}
+ -t 0.593840000000001 -s 2 -d 3 -p tcp -e 1040 -c 0 -i 33 -a 0 -x {0.0 3.1 21 ------- null}
- -t 0.593840000000001 -s 2 -d 3 -p tcp -e 1040 -c 0 -i 33 -a 0 -x {0.0 3.1 21 ------- null}
h -t 0.593840000000001 -s 2 -d 3 -p tcp -e 1040 -c 0 -i 33 -a 0 -x {0.0 3.1 -1 ------- null}
r -t 0.593840000000001 -s 3 -d 2 -p ack -e 40 -c 0 -i 47 -a 0 -x {3.1 0.0 15 ------- null}
+ -t 0.593840000000001 -s 2 -d 0 -p ack -e 40 -c 0 -i 47 -a 0 -x {3.1 0.0 15 ------- null}
- -t 0.593840000000001 -s 2 -d 0 -p ack -e 40 -c 0 -i 47 -a 0 -x {3.1 0.0 15 ------- null}
h -t 0.593840000000001 -s 2 -d 0 -p ack -e 40 -c 0 -i 47 -a 0 -x {3.1 0.0 -1 ------- null}
r -t 0.595840000000001 -s 2 -d 3 -p tcp -e 1040 -c 0 -i 30 -a 0 -x {0.0 3.1 19 ------- null}
+ -t 0.595840000000001 -s 3 -d 2 -p ack -e 40 -c 0 -i 50 -a 0 -x {3.1 0.0 15 ------- null}
- -t 0.595840000000001 -s 3 -d 2 -p ack -e 40 -c 0 -i 50 -a 0 -x {3.1 0.0 15 ------- null}
h -t 0.595840000000001 -s 3 -d 2 -p ack -e 40 -c 0 -i 50 -a 0 -x {3.1 0.0 -1 ------- null}
- -t 0.596000000000001 -s 0 -d 2 -p tcp -e 1040 -c 0 -i 39 -a 0 -x {0.0 3.1 25 ------- null}
h -t 0.596000000000001 -s 0 -d 2 -p tcp -e 1040 -c 0 -i 39 -a 0 -x {0.0 3.1 -1 ------- null}
r -t 0.596000000000001 -s 2 -d 0 -p ack -e 40 -c 0 -i 47 -a 0 -x {3.1 0.0 15 ------- null}
+ -t 0.596000000000001 -s 0 -d 2 -p tcp -e 1040 -c 0 -i 51 -a 0 -x {0.0 3.1 33 ------- null}
r -t 0.598000000000001 -s 0 -d 2 -p tcp -e 1040 -c 0 -i 36 -a 0 -x {0.0 3.1 23 ------- null}
+ -t 0.598000000000001 -s 2 -d 3 -p tcp -e 1040 -c 0 -i 36 -a 0 -x {0.0 3.1 23 ------- null}
- -t 0.598000000000001 -s 2 -d 3 -p tcp -e 1040 -c 0 -i 36 -a 0 -x {0.0 3.1 23 ------- null}
h -t 0.598000000000001 -s 2 -d 3 -p tcp -e 1040 -c 0 -i 36 -a 0 -x {0.0 3.1 -1 ------- null}
r -t 0.598000000000001 -s 3 -d 2 -p ack -e 40 -c 0 -i 50 -a 0 -x {3.1 0.0 15 ------- null}
+ -t 0.598000000000001 -s 2 -d 0 -p ack -e 40 -c 0 -i 50 -a 0 -x {3.1 0.0 15 ------- null}
- -t 0.598000000000001 -s 2 -d 0 -p ack -e 40 -c 0 -i 50 -a 0 -x {3.1 0.0 15 ------- null}
h -t 0.598000000000001 -s 2 -d 0 -p ack -e 40 -c 0 -i 50 -a 0 -x {3.1 0.0 -1 ------- null}
r -t 0.600000000000001 -s 2 -d 3 -p tcp -e 1040 -c 0 -i 33 -a 0 -x {0.0 3.1 21 ------- null}
+ -t 0.600000000000001 -s 3 -d 2 -p ack -e 40 -c 0 -i 52 -a 0 -x {3.1 0.0 15 ------- null}
- -t 0.600000000000001 -s 3 -d 2 -p ack -e 40 -c 0 -i 52 -a 0 -x {3.1 0.0 15 ------- null}