h 0.5 1 10 tcp 40 ------- 0 1.0 8.0 0 0
+ 0.502 1 10 tcp 40 ------- 0 1.0 8.0 0 0
- 0.502 1 10 tcp 40 ------- 0 1.0 8.0 0 0
d 0.502004 9 10 tcp 40 ------- 0 1.0 8.0 0 0
d 0.502004 7 10 tcp 40 ------- 0 1.0 8.0 0 0
d 0.502004 6 10 tcp 40 ------- 0 1.0 8.0 0 0
d 0.502004 5 10 tcp 40 ------- 0 1.0 8.0 0 0
d 0.502004 4 10 tcp 40 ------- 0 1.0 8.0 0 0
d 0.502004 3 10 tcp 40 ------- 0 1.0 8.0 0 0
d 0.502004 2 10 tcp 40 ------- 0 1.0 8.0 0 0
d 0.502004 0 10 tcp 40 ------- 0 1.0 8.0 0 0
r 0.504004 10 8 tcp 40 ------- 0 1.0 8.0 0 0
h 0.504004 8 10 ack 40 ------- 0 8.0 1.0 0 1
+ 0.506004 8 10 ack 40 ------- 0 8.0 1.0 0 1
- 0.506004 8 10 ack 40 ------- 0 8.0 1.0 0 1
d 0.506008 9 10 ack 40 ------- 0 8.0 1.0 0 1
d 0.506008 7 10 ack 40 ------- 0 8.0 1.0 0 1
d 0.506008 6 10 ack 40 ------- 0 8.0 1.0 0 1
d 0.506008 5 10 ack 40 ------- 0 8.0 1.0 0 1
d 0.506008 4 10 ack 40 ------- 0 8.0 1.0 0 1
d 0.506008 3 10 ack 40 ------- 0 8.0 1.0 0 1
d 0.506008 2 10 ack 40 ------- 0 8.0 1.0 0 1
d 0.506008 0 10 ack 40 ------- 0 8.0 1.0 0 1
r 0.508008 10 1 ack 40 ------- 0 8.0 1.0 0 1
h 0.508008 1 10 tcp 1040 ------- 0 1.0 8.0 1 2
h 0.508008 1 10 tcp 1040 ------- 0 1.0 8.0 2 3
+ 0.510008 1 10 tcp 1040 ------- 0 1.0 8.0 1 2
- 0.510008 1 10 tcp 1040 ------- 0 1.0 8.0 1 2
+ 0.510008 1 10 tcp 1040 ------- 0 1.0 8.0 2 3
d 0.510012 9 10 tcp 1040 ------- 0 1.0 8.0 1 2
d 0.510012 7 10 tcp 1040 ------- 0 1.0 8.0 1 2
d 0.510012 6 10 tcp 1040 ------- 0 1.0 8.0 1 2
d 0.510012 5 10 tcp 1040 ------- 0 1.0 8.0 1 2
d 0.510012 4 10 tcp 1040 ------- 0 1.0 8.0 1 2
d 0.510012 3 10 tcp 1040 ------- 0 1.0 8.0 1 2
d 0.510012 2 10 tcp 1040 ------- 0 1.0 8.0 1 2
d 0.510012 0 10 tcp 1040 ------- 0 1.0 8.0 1 2
r 0.512012 10 8 tcp 1040 ------- 0 1.0 8.0 1 2
h 0.512012 8 10 ack 40 ------- 0 8.0 1.0 1 4
+ 0.514012 8 10 ack 40 ------- 0 8.0 1.0 1 4
- 0.514012 8 10 ack 40 ------- 0 8.0 1.0 1 4
d 0.514016 9 10 ack 40 ------- 0 8.0 1.0 1 4
d 0.514016 7 10 ack 40 ------- 0 8.0 1.0 1 4
d 0.514016 6 10 ack 40 ------- 0 8.0 1.0 1 4
d 0.514016 5 10 ack 40 ------- 0 8.0 1.0 1 4
d 0.514016 4 10 ack 40 ------- 0 8.0 1.0 1 4
d 0.514016 3 10 ack 40 ------- 0 8.0 1.0 1 4
d 0.514016 2 10 ack 40 ------- 0 8.0 1.0 1 4
d 0.514016 0 10 ack 40 ------- 0 8.0 1.0 1 4
- 0.514424 1 10 tcp 1040 ------- 0 1.0 8.0 2 3
d 0.514428 9 10 tcp 1040 ------- 0 1.0 8.0 2 3
d 0.514428 7 10 tcp 1040 ------- 0 1.0 8.0 2 3
d 0.514428 6 10 tcp 1040 ------- 0 1.0 8.0 2 3
d 0.514428 5 10 tcp 1040 ------- 0 1.0 8.0 2 3
d 0.514428 4 10 tcp 1040 ------- 0 1.0 8.0 2 3
d 0.514428 3 10 tcp 1040 ------- 0 1.0 8.0 2 3
d 0.514428 2 10 tcp 1040 ------- 0 1.0 8.0 2 3
d 0.514428 0 10 tcp 1040 ------- 0 1.0 8.0 2 3
r 0.516016 10 1 ack 40 ------- 0 8.0 1.0 1 4
h 0.516016 1 10 tcp 1040 ------- 0 1.0 8.0 3 5
h 0.516016 1 10 tcp 1040 ------- 0 1.0 8.0 4 6
r 0.516428 10 8 tcp 1040 ------- 0 1.0 8.0 2 3
h 0.516428 8 10 ack 40 ------- 0 8.0 1.0 2 7
+ 0.518016 1 10 tcp 1040 ------- 0 1.0 8.0 3 5
+ 0.518016 1 10 tcp 1040 ------- 0 1.0 8.0 4 6
+ 0.518428 8 10 ack 40 ------- 0 8.0 1.0 2 7
- 0.518428 8 10 ack 40 ------- 0 8.0 1.0 2 7
d 0.518432 9 10 ack 40 ------- 0 8.0 1.0 2 7
d 0.518432 7 10 ack 40 ------- 0 8.0 1.0 2 7
d 0.518432 6 10 ack 40 ------- 0 8.0 1.0 2 7
d 0.518432 5 10 ack 40 ------- 0 8.0 1.0 2 7
d 0.518432 4 10 ack 40 ------- 0 8.0 1.0 2 7
d 0.518432 3 10 ack 40 ------- 0 8.0 1.0 2 7
d 0.518432 2 10 ack 40 ------- 0 8.0 1.0 2 7
d 0.518432 0 10 ack 40 ------- 0 8.0 1.0 2 7
- 0.51884 1 10 tcp 1040 ------- 0 1.0 8.0 3 5
d 0.518844 9 10 tcp 1040 ------- 0 1.0 8.0 3 5
d 0.518844 7 10 tcp 1040 ------- 0 1.0 8.0 3 5
d 0.518844 6 10 tcp 1040 ------- 0 1.0 8.0 3 5
d 0.518844 5 10 tcp 1040 ------- 0 1.0 8.0 3 5
d 0.518844 4 10 tcp 1040 ------- 0 1.0 8.0 3 5
d 0.518844 3 10 tcp 1040 ------- 0 1.0 8.0 3 5
d 0.518844 2 10 tcp 1040 ------- 0 1.0 8.0 3 5
d 0.518844 0 10 tcp 1040 ------- 0 1.0 8.0 3 5
r 0.520432 10 1 ack 40 ------- 0 8.0 1.0 2 7
h 0.520432 1 10 tcp 1040 ------- 0 1.0 8.0 5 8
h 0.520432 1 10 tcp 1040 ------- 0 1.0 8.0 6 9
r 0.520844 10 8 tcp 1040 ------- 0 1.0 8.0 3 5
h 0.520844 8 10 ack 40 ------- 0 8.0 1.0 3 10
+ 0.522432 1 10 tcp 1040 ------- 0 1.0 8.0 5 8
+ 0.522432 1 10 tcp 1040 ------- 0 1.0 8.0 6 9
+ 0.522844 8 10 ack 40 ------- 0 8.0 1.0 3 10
- 0.522844 8 10 ack 40 ------- 0 8.0 1.0 3 10
d 0.522848 9 10 ack 40 ------- 0 8.0 1.0 3 10
d 0.522848 7 10 ack 40 ------- 0 8.0 1.0 3 10
d 0.522848 6 10 ack 40 ------- 0 8.0 1.0 3 10
d 0.522848 5 10 ack 40 ------- 0 8.0 1.0 3 10
d 0.522848 4 10 ack 40 ------- 0 8.0 1.0 3 10
d 0.522848 3 10 ack 40 ------- 0 8.0 1.0 3 10
d 0.522848 2 10 ack 40 ------- 0 8.0 1.0 3 10
d 0.522848 0 10 ack 40 ------- 0 8.0 1.0 3 10
- 0.523256 1 10 tcp 1040 ------- 0 1.0 8.0 4 6
d 0.52326 9 10 tcp 1040 ------- 0 1.0 8.0 4 6
d 0.52326 7 10 tcp 1040 ------- 0 1.0 8.0 4 6
d 0.52326 6 10 tcp 1040 ------- 0 1.0 8.0 4 6
d 0.52326 5 10 tcp 1040 ------- 0 1.0 8.0 4 6
d 0.52326 4 10 tcp 1040 ------- 0 1.0 8.0 4 6
d 0.52326 3 10 tcp 1040 ------- 0 1.0 8.0 4 6
d 0.52326 2 10 tcp 1040 ------- 0 1.0 8.0 4 6
d 0.52326 0 10 tcp 1040 ------- 0 1.0 8.0 4 6
r 0.524848 10 1 ack 40 ------- 0 8.0 1.0 3 10
h 0.524848 1 10 tcp 1040 ------- 0 1.0 8.0 7 11
h 0.524848 1 10 tcp 1040 ------- 0 1.0 8.0 8 12
r 0.52526 10 8 tcp 1040 ------- 0 1.0 8.0 4 6
h 0.52526 8 10 ack 40 ------- 0 8.0 1.0 4 13
+ 0.526848 1 10 tcp 1040 ------- 0 1.0 8.0 7 11
+ 0.526848 1 10 tcp 1040 ------- 0 1.0 8.0 8 12
+ 0.52726 8 10 ack 40 ------- 0 8.0 1.0 4 13
- 0.52726 8 10 ack 40 ------- 0 8.0 1.0 4 13
d 0.527264 9 10 ack 40 ------- 0 8.0 1.0 4 13
d 0.527264 7 10 ack 40 ------- 0 8.0 1.0 4 13
d 0.527264 6 10 ack 40 ------- 0 8.0 1.0 4 13
d 0.527264 5 10 ack 40 ------- 0 8.0 1.0 4 13
d 0.527264 4 10 ack 40 ------- 0 8.0 1.0 4 13
d 0.527264 3 10 ack 40 ------- 0 8.0 1.0 4 13
d 0.527264 2 10 ack 40 ------- 0 8.0 1.0 4 13
d 0.527264 0 10 ack 40 ------- 0 8.0 1.0 4 13
- 0.527672 1 10 tcp 1040 ------- 0 1.0 8.0 5 8
d 0.527676 9 10 tcp 1040 ------- 0 1.0 8.0 5 8
d 0.527676 7 10 tcp 1040 ------- 0 1.0 8.0 5 8
d 0.527676 6 10 tcp 1040 ------- 0 1.0 8.0 5 8
d 0.527676 5 10 tcp 1040 ------- 0 1.0 8.0 5 8
d 0.527676 4 10 tcp 1040 ------- 0 1.0 8.0 5 8
d 0.527676 3 10 tcp 1040 ------- 0 1.0 8.0 5 8
d 0.527676 2 10 tcp 1040 ------- 0 1.0 8.0 5 8
d 0.527676 0 10 tcp 1040 ------- 0 1.0 8.0 5 8
r 0.529264 10 1 ack 40 ------- 0 8.0 1.0 4 13
h 0.529264 1 10 tcp 1040 ------- 0 1.0 8.0 9 14
h 0.529264 1 10 tcp 1040 ------- 0 1.0 8.0 10 15
r 0.529676 10 8 tcp 1040 ------- 0 1.0 8.0 5 8
h 0.529676 8 10 ack 40 ------- 0 8.0 1.0 5 16
+ 0.531264 1 10 tcp 1040 ------- 0 1.0 8.0 9 14
+ 0.531264 1 10 tcp 1040 ------- 0 1.0 8.0 10 15
+ 0.531676 8 10 ack 40 ------- 0 8.0 1.0 5 16
- 0.531676 8 10 ack 40 ------- 0 8.0 1.0 5 16
d 0.53168 9 10 ack 40 ------- 0 8.0 1.0 5 16
d 0.53168 7 10 ack 40 ------- 0 8.0 1.0 5 16
d 0.53168 6 10 ack 40 ------- 0 8.0 1.0 5 16
d 0.53168 5 10 ack 40 ------- 0 8.0 1.0 5 16
d 0.53168 4 10 ack 40 ------- 0 8.0 1.0 5 16
d 0.53168 3 10 ack 40 ------- 0 8.0 1.0 5 16
d 0.53168 2 10 ack 40 ------- 0 8.0 1.0 5 16
d 0.53168 0 10 ack 40 ------- 0 8.0 1.0 5 16
- 0.532088 1 10 tcp 1040 ------- 0 1.0 8.0 6 9
d 0.532092 9 10 tcp 1040 ------- 0 1.0 8.0 6 9
d 0.532092 7 10 tcp 1040 ------- 0 1.0 8.0 6 9
d 0.532092 6 10 tcp 1040 ------- 0 1.0 8.0 6 9
d 0.532092 5 10 tcp 1040 ------- 0 1.0 8.0 6 9
d 0.532092 4 10 tcp 1040 ------- 0 1.0 8.0 6 9
d 0.532092 3 10 tcp 1040 ------- 0 1.0 8.0 6 9
d 0.532092 2 10 tcp 1040 ------- 0 1.0 8.0 6 9
d 0.532092 0 10 tcp 1040 ------- 0 1.0 8.0 6 9
r 0.53368 10 1 ack 40 ------- 0 8.0 1.0 5 16
h 0.53368 1 10 tcp 1040 ------- 0 1.0 8.0 11 17
h 0.53368 1 10 tcp 1040 ------- 0 1.0 8.0 12 18
r 0.534092 10 8 tcp 1040 ------- 0 1.0 8.0 6 9
h 0.534092 8 10 ack 40 ------- 0 8.0 1.0 6 19
+ 0.53568 1 10 tcp 1040 ------- 0 1.0 8.0 11 17
+ 0.53568 1 10 tcp 1040 ------- 0 1.0 8.0 12 18
+ 0.536092 8 10 ack 40 ------- 0 8.0 1.0 6 19
- 0.536092 8 10 ack 40 ------- 0 8.0 1.0 6 19
d 0.536096 9 10 ack 40 ------- 0 8.0 1.0 6 19
d 0.536096 7 10 ack 40 ------- 0 8.0 1.0 6 19
d 0.536096 6 10 ack 40 ------- 0 8.0 1.0 6 19
d 0.536096 5 10 ack 40 ------- 0 8.0 1.0 6 19
d 0.536096 4 10 ack 40 ------- 0 8.0 1.0 6 19
d 0.536096 3 10 ack 40 ------- 0 8.0 1.0 6 19
d 0.536096 2 10 ack 40 ------- 0 8.0 1.0 6 19
d 0.536096 0 10 ack 40 ------- 0 8.0 1.0 6 19
- 0.536504 1 10 tcp 1040 ------- 0 1.0 8.0 7 11
d 0.536508 9 10 tcp 1040 ------- 0 1.0 8.0 7 11
d 0.536508 7 10 tcp 1040 ------- 0 1.0 8.0 7 11
d 0.536508 6 10 tcp 1040 ------- 0 1.0 8.0 7 11
d 0.536508 5 10 tcp 1040 ------- 0 1.0 8.0 7 11
d 0.536508 4 10 tcp 1040 ------- 0 1.0 8.0 7 11
d 0.536508 3 10 tcp 1040 ------- 0 1.0 8.0 7 11
d 0.536508 2 10 tcp 1040 ------- 0 1.0 8.0 7 11
d 0.536508 0 10 tcp 1040 ------- 0 1.0 8.0 7 11
r 0.538096 10 1 ack 40 ------- 0 8.0 1.0 6 19
h 0.538096 1 10 tcp 1040 ------- 0 1.0 8.0 13 20
h 0.538096 1 10 tcp 1040 ------- 0 1.0 8.0 14 21
r 0.538508 10 8 tcp 1040 ------- 0 1.0 8.0 7 11
h 0.538508 8 10 ack 40 ------- 0 8.0 1.0 7 22
+ 0.540096 1 10 tcp 1040 ------- 0 1.0 8.0 13 20
+ 0.540096 1 10 tcp 1040 ------- 0 1.0 8.0 14 21
+ 0.540508 8 10 ack 40 ------- 0 8.0 1.0 7 22
- 0.540508 8 10 ack 40 ------- 0 8.0 1.0 7 22
d 0.540512 9 10 ack 40 ------- 0 8.0 1.0 7 22
d 0.540512 7 10 ack 40 ------- 0 8.0 1.0 7 22
d 0.540512 6 10 ack 40 ------- 0 8.0 1.0 7 22
d 0.540512 5 10 ack 40 ------- 0 8.0 1.0 7 22
d 0.540512 4 10 ack 40 ------- 0 8.0 1.0 7 22
d 0.540512 3 10 ack 40 ------- 0 8.0 1.0 7 22
d 0.540512 2 10 ack 40 ------- 0 8.0 1.0 7 22
d 0.540512 0 10 ack 40 ------- 0 8.0 1.0 7 22
- 0.54092 1 10 tcp 1040 ------- 0 1.0 8.0 8 12
d 0.540924 9 10 tcp 1040 ------- 0 1.0 8.0 8 12
d 0.540924 7 10 tcp 1040 ------- 0 1.0 8.0 8 12
d 0.540924 6 10 tcp 1040 ------- 0 1.0 8.0 8 12
d 0.540924 5 10 tcp 1040 ------- 0 1.0 8.0 8 12
d 0.540924 4 10 tcp 1040 ------- 0 1.0 8.0 8 12
d 0.540924 3 10 tcp 1040 ------- 0 1.0 8.0 8 12
d 0.540924 2 10 tcp 1040 ------- 0 1.0 8.0 8 12
d 0.540924 0 10 tcp 1040 ------- 0 1.0 8.0 8 12
r 0.542512 10 1 ack 40 ------- 0 8.0 1.0 7 22
h 0.542512 1 10 tcp 1040 ------- 0 1.0 8.0 15 23
h 0.542512 1 10 tcp 1040 ------- 0 1.0 8.0 16 24
r 0.542924 10 8 tcp 1040 ------- 0 1.0 8.0 8 12
h 0.542924 8 10 ack 40 ------- 0 8.0 1.0 8 25
+ 0.544512 1 10 tcp 1040 ------- 0 1.0 8.0 15 23
+ 0.544512 1 10 tcp 1040 ------- 0 1.0 8.0 16 24
+ 0.544924 8 10 ack 40 ------- 0 8.0 1.0 8 25
- 0.544924 8 10 ack 40 ------- 0 8.0 1.0 8 25
d 0.544928 9 10 ack 40 ------- 0 8.0 1.0 8 25
d 0.544928 7 10 ack 40 ------- 0 8.0 1.0 8 25
d 0.544928 6 10 ack 40 ------- 0 8.0 1.0 8 25
d 0.544928 5 10 ack 40 ------- 0 8.0 1.0 8 25
d 0.544928 4 10 ack 40 ------- 0 8.0 1.0 8 25
d 0.544928 3 10 ack 40 ------- 0 8.0 1.0 8 25
d 0.544928 2 10 ack 40 ------- 0 8.0 1.0 8 25
d 0.544928 0 10 ack 40 ------- 0 8.0 1.0 8 25
- 0.545336 1 10 tcp 1040 ------- 0 1.0 8.0 9 14
d 0.54534 9 10 tcp 1040 ------- 0 1.0 8.0 9 14
d 0.54534 7 10 tcp 1040 ------- 0 1.0 8.0 9 14
d 0.54534 6 10 tcp 1040 ------- 0 1.0 8.0 9 14
d 0.54534 5 10 tcp 1040 ------- 0 1.0 8.0 9 14
d 0.54534 4 10 tcp 1040 ------- 0 1.0 8.0 9 14
d 0.54534 3 10 tcp 1040 ------- 0 1.0 8.0 9 14
d 0.54534 2 10 tcp 1040 ------- 0 1.0 8.0 9 14
d 0.54534 0 10 tcp 1040 ------- 0 1.0 8.0 9 14
r 0.546928 10 1 ack 40 ------- 0 8.0 1.0 8 25
h 0.546928 1 10 tcp 1040 ------- 0 1.0 8.0 17 26
h 0.546928 1 10 tcp 1040 ------- 0 1.0 8.0 18 27
r 0.54734 10 8 tcp 1040 ------- 0 1.0 8.0 9 14
h 0.54734 8 10 ack 40 ------- 0 8.0 1.0 9 28
+ 0.548928 1 10 tcp 1040 ------- 0 1.0 8.0 17 26
+ 0.548928 1 10 tcp 1040 ------- 0 1.0 8.0 18 27
+ 0.54934 8 10 ack 40 ------- 0 8.0 1.0 9 28
- 0.54934 8 10 ack 40 ------- 0 8.0 1.0 9 28
d 0.549344 9 10 ack 40 ------- 0 8.0 1.0 9 28
d 0.549344 7 10 ack 40 ------- 0 8.0 1.0 9 28
d 0.549344 6 10 ack 40 ------- 0 8.0 1.0 9 28
d 0.549344 5 10 ack 40 ------- 0 8.0 1.0 9 28
d 0.549344 4 10 ack 40 ------- 0 8.0 1.0 9 28
d 0.549344 3 10 ack 40 ------- 0 8.0 1.0 9 28
d 0.549344 2 10 ack 40 ------- 0 8.0 1.0 9 28
d 0.549344 0 10 ack 40 ------- 0 8.0 1.0 9 28
- 0.549752 1 10 tcp 1040 ------- 0 1.0 8.0 10 15
d 0.549756 9 10 tcp 1040 ------- 0 1.0 8.0 10 15
d 0.549756 7 10 tcp 1040 ------- 0 1.0 8.0 10 15
d 0.549756 6 10 tcp 1040 ------- 0 1.0 8.0 10 15
d 0.549756 5 10 tcp 1040 ------- 0 1.0 8.0 10 15
d 0.549756 4 10 tcp 1040 ------- 0 1.0 8.0 10 15
d 0.549756 3 10 tcp 1040 ------- 0 1.0 8.0 10 15
d 0.549756 2 10 tcp 1040 ------- 0 1.0 8.0 10 15
d 0.549756 0 10 tcp 1040 ------- 0 1.0 8.0 10 15
r 0.551344 10 1 ack 40 ------- 0 8.0 1.0 9 28
h 0.551344 1 10 tcp 1040 ------- 0 1.0 8.0 19 29
h 0.551344 1 10 tcp 1040 ------- 0 1.0 8.0 20 30
r 0.551756 10 8 tcp 1040 ------- 0 1.0 8.0 10 15
h 0.551756 8 10 ack 40 ------- 0 8.0 1.0 10 31
+ 0.553344 1 10 tcp 1040 ------- 0 1.0 8.0 19 29
+ 0.553344 1 10 tcp 1040 ------- 0 1.0 8.0 20 30
+ 0.553756 8 10 ack 40 ------- 0 8.0 1.0 10 31
- 0.553756 8 10 ack 40 ------- 0 8.0 1.0 10 31
d 0.55376 9 10 ack 40 ------- 0 8.0 1.0 10 31
d 0.55376 7 10 ack 40 ------- 0 8.0 1.0 10 31
d 0.55376 6 10 ack 40 ------- 0 8.0 1.0 10 31
d 0.55376 5 10 ack 40 ------- 0 8.0 1.0 10 31
d 0.55376 4 10 ack 40 ------- 0 8.0 1.0 10 31
d 0.55376 3 10 ack 40 ------- 0 8.0 1.0 10 31
d 0.55376 2 10 ack 40 ------- 0 8.0 1.0 10 31
d 0.55376 0 10 ack 40 ------- 0 8.0 1.0 10 31
- 0.554168 1 10 tcp 1040 ------- 0 1.0 8.0 11 17
d 0.554172 9 10 tcp 1040 ------- 0 1.0 8.0 11 17
d 0.554172 7 10 tcp 1040 ------- 0 1.0 8.0 11 17
d 0.554172 6 10 tcp 1040 ------- 0 1.0 8.0 11 17
d 0.554172 5 10 tcp 1040 ------- 0 1.0 8.0 11 17
d 0.554172 4 10 tcp 1040 ------- 0 1.0 8.0 11 17
d 0.554172 3 10 tcp 1040 ------- 0 1.0 8.0 11 17
d 0.554172 2 10 tcp 1040 ------- 0 1.0 8.0 11 17
d 0.554172 0 10 tcp 1040 ------- 0 1.0 8.0 11 17
r 0.55576 10 1 ack 40 ------- 0 8.0 1.0 10 31
h 0.55576 1 10 tcp 1040 ------- 0 1.0 8.0 21 32
h 0.55576 1 10 tcp 1040 ------- 0 1.0 8.0 22 33
r 0.556172 10 8 tcp 1040 ------- 0 1.0 8.0 11 17
h 0.556172 8 10 ack 40 ------- 0 8.0 1.0 11 34
+ 0.55776 1 10 tcp 1040 ------- 0 1.0 8.0 21 32
+ 0.55776 1 10 tcp 1040 ------- 0 1.0 8.0 22 33
+ 0.558172 8 10 ack 40 ------- 0 8.0 1.0 11 34
- 0.558172 8 10 ack 40 ------- 0 8.0 1.0 11 34
d 0.558176 9 10 ack 40 ------- 0 8.0 1.0 11 34
d 0.558176 7 10 ack 40 ------- 0 8.0 1.0 11 34
d 0.558176 6 10 ack 40 ------- 0 8.0 1.0 11 34
d 0.558176 5 10 ack 40 ------- 0 8.0 1.0 11 34
d 0.558176 4 10 ack 40 ------- 0 8.0 1.0 11 34
d 0.558176 3 10 ack 40 ------- 0 8.0 1.0 11 34
d 0.558176 2 10 ack 40 ------- 0 8.0 1.0 11 34
d 0.558176 0 10 ack 40 ------- 0 8.0 1.0 11 34
- 0.558584 1 10 tcp 1040 ------- 0 1.0 8.0 12 18
d 0.558588 9 10 tcp 1040 ------- 0 1.0 8.0 12 18
d 0.558588 7 10 tcp 1040 ------- 0 1.0 8.0 12 18
d 0.558588 6 10 tcp 1040 ------- 0 1.0 8.0 12 18
d 0.558588 5 10 tcp 1040 ------- 0 1.0 8.0 12 18
d 0.558588 4 10 tcp 1040 ------- 0 1.0 8.0 12 18
d 0.558588 3 10 tcp 1040 ------- 0 1.0 8.0 12 18
d 0.558588 2 10 tcp 1040 ------- 0 1.0 8.0 12 18
d 0.558588 0 10 tcp 1040 ------- 0 1.0 8.0 12 18
r 0.560176 10 1 ack 40 ------- 0 8.0 1.0 11 34
h 0.560176 1 10 tcp 1040 ------- 0 1.0 8.0 23 35
h 0.560176 1 10 tcp 1040 ------- 0 1.0 8.0 24 36
r 0.560588 10 8 tcp 1040 ------- 0 1.0 8.0 12 18
h 0.560588 8 10 ack 40 ------- 0 8.0 1.0 12 37
+ 0.562176 1 10 tcp 1040 ------- 0 1.0 8.0 23 35
+ 0.562176 1 10 tcp 1040 ------- 0 1.0 8.0 24 36
+ 0.562588 8 10 ack 40 ------- 0 8.0 1.0 12 37
- 0.562588 8 10 ack 40 ------- 0 8.0 1.0 12 37
d 0.562592 9 10 ack 40 ------- 0 8.0 1.0 12 37
d 0.562592 7 10 ack 40 ------- 0 8.0 1.0 12 37
d 0.562592 6 10 ack 40 ------- 0 8.0 1.0 12 37
d 0.562592 5 10 ack 40 ------- 0 8.0 1.0 12 37
d 0.562592 4 10 ack 40 ------- 0 8.0 1.0 12 37
d 0.562592 3 10 ack 40 ------- 0 8.0 1.0 12 37
d 0.562592 2 10 ack 40 ------- 0 8.0 1.0 12 37
d 0.562592 0 10 ack 40 ------- 0 8.0 1.0 12 37
- 0.563 1 10 tcp 1040 ------- 0 1.0 8.0 13 20
d 0.563004 9 10 tcp 1040 ------- 0 1.0 8.0 13 20
d 0.563004 7 10 tcp 1040 ------- 0 1.0 8.0 13 20
d 0.563004 6 10 tcp 1040 ------- 0 1.0 8.0 13 20
d 0.563004 5 10 tcp 1040 ------- 0 1.0 8.0 13 20
d 0.563004 4 10 tcp 1040 ------- 0 1.0 8.0 13 20
d 0.563004 3 10 tcp 1040 ------- 0 1.0 8.0 13 20
d 0.563004 2 10 tcp 1040 ------- 0 1.0 8.0 13 20
d 0.563004 0 10 tcp 1040 ------- 0 1.0 8.0 13 20
r 0.564592 10 1 ack 40 ------- 0 8.0 1.0 12 37
h 0.564592 1 10 tcp 1040 ------- 0 1.0 8.0 25 38
h 0.564592 1 10 tcp 1040 ------- 0 1.0 8.0 26 39
r 0.565004 10 8 tcp 1040 ------- 0 1.0 8.0 13 20
h 0.565004 8 10 ack 40 ------- 0 8.0 1.0 13 40
+ 0.566592 1 10 tcp 1040 ------- 0 1.0 8.0 25 38
+ 0.566592 1 10 tcp 1040 ------- 0 1.0 8.0 26 39
+ 0.567004 8 10 ack 40 ------- 0 8.0 1.0 13 40
- 0.567004 8 10 ack 40 ------- 0 8.0 1.0 13 40
d 0.567008 9 10 ack 40 ------- 0 8.0 1.0 13 40
d 0.567008 7 10 ack 40 ------- 0 8.0 1.0 13 40
d 0.567008 6 10 ack 40 ------- 0 8.0 1.0 13 40
d 0.567008 5 10 ack 40 ------- 0 8.0 1.0 13 40
d 0.567008 4 10 ack 40 ------- 0 8.0 1.0 13 40
d 0.567008 3 10 ack 40 ------- 0 8.0 1.0 13 40
d 0.567008 2 10 ack 40 ------- 0 8.0 1.0 13 40
d 0.567008 0 10 ack 40 ------- 0 8.0 1.0 13 40
- 0.567416 1 10 tcp 1040 ------- 0 1.0 8.0 14 21
d 0.56742 9 10 tcp 1040 ------- 0 1.0 8.0 14 21
d 0.56742 7 10 tcp 1040 ------- 0 1.0 8.0 14 21
d 0.56742 6 10 tcp 1040 ------- 0 1.0 8.0 14 21
d 0.56742 5 10 tcp 1040 ------- 0 1.0 8.0 14 21
d 0.56742 4 10 tcp 1040 ------- 0 1.0 8.0 14 21
d 0.56742 3 10 tcp 1040 ------- 0 1.0 8.0 14 21
d 0.56742 2 10 tcp 1040 ------- 0 1.0 8.0 14 21
d 0.56742 0 10 tcp 1040 ------- 0 1.0 8.0 14 21
r 0.569008 10 1 ack 40 ------- 0 8.0 1.0 13 40
h 0.569008 1 10 tcp 1040 ------- 0 1.0 8.0 27 41
h 0.569008 1 10 tcp 1040 ------- 0 1.0 8.0 28 42
r 0.56942 10 8 tcp 1040 ------- 0 1.0 8.0 14 21
h 0.56942 8 10 ack 40 ------- 0 8.0 1.0 14 43
+ 0.571008 1 10 tcp 1040 ------- 0 1.0 8.0 27 41
+ 0.571008 1 10 tcp 1040 ------- 0 1.0 8.0 28 42
+ 0.57142 8 10 ack 40 ------- 0 8.0 1.0 14 43
- 0.57142 8 10 ack 40 ------- 0 8.0 1.0 14 43
d 0.571424 9 10 ack 40 ------- 0 8.0 1.0 14 43
d 0.571424 7 10 ack 40 ------- 0 8.0 1.0 14 43
d 0.571424 6 10 ack 40 ------- 0 8.0 1.0 14 43
d 0.571424 5 10 ack 40 ------- 0 8.0 1.0 14 43
d 0.571424 4 10 ack 40 ------- 0 8.0 1.0 14 43
d 0.571424 3 10 ack 40 ------- 0 8.0 1.0 14 43
d 0.571424 2 10 ack 40 ------- 0 8.0 1.0 14 43
d 0.571424 0 10 ack 40 ------- 0 8.0 1.0 14 43
- 0.571832 1 10 tcp 1040 ------- 0 1.0 8.0 15 23
d 0.571836 9 10 tcp 1040 ------- 0 1.0 8.0 15 23
d 0.571836 7 10 tcp 1040 ------- 0 1.0 8.0 15 23
d 0.571836 6 10 tcp 1040 ------- 0 1.0 8.0 15 23
d 0.571836 5 10 tcp 1040 ------- 0 1.0 8.0 15 23
d 0.571836 4 10 tcp 1040 ------- 0 1.0 8.0 15 23
d 0.571836 3 10 tcp 1040 ------- 0 1.0 8.0 15 23
d 0.571836 2 10 tcp 1040 ------- 0 1.0 8.0 15 23
d 0.571836 0 10 tcp 1040 ------- 0 1.0 8.0 15 23
r 0.573424 10 1 ack 40 ------- 0 8.0 1.0 14 43
h 0.573424 1 10 tcp 1040 ------- 0 1.0 8.0 29 44
h 0.573424 1 10 tcp 1040 ------- 0 1.0 8.0 30 45
r 0.573836 10 8 tcp 1040 ------- 0 1.0 8.0 15 23
h 0.573836 8 10 ack 40 ------- 0 8.0 1.0 15 46
+ 0.575424 1 10 tcp 1040 ------- 0 1.0 8.0 29 44
+ 0.575424 1 10 tcp 1040 ------- 0 1.0 8.0 30 45
+ 0.575836 8 10 ack 40 ------- 0 8.0 1.0 15 46
- 0.575836 8 10 ack 40 ------- 0 8.0 1.0 15 46
d 0.57584 9 10 ack 40 ------- 0 8.0 1.0 15 46
d 0.57584 7 10 ack 40 ------- 0 8.0 1.0 15 46
d 0.57584 6 10 ack 40 ------- 0 8.0 1.0 15 46
d 0.57584 5 10 ack 40 ------- 0 8.0 1.0 15 46
d 0.57584 4 10 ack 40 ------- 0 8.0 1.0 15 46
d 0.57584 3 10 ack 40 ------- 0 8.0 1.0 15 46
d 0.57584 2 10 ack 40 ------- 0 8.0 1.0 15 46
d 0.57584 0 10 ack 40 ------- 0 8.0 1.0 15 46
- 0.576248 1 10 tcp 1040 ------- 0 1.0 8.0 16 24
d 0.576252 9 10 tcp 1040 ------- 0 1.0 8.0 16 24
d 0.576252 7 10 tcp 1040 ------- 0 1.0 8.0 16 24
d 0.576252 6 10 tcp 1040 ------- 0 1.0 8.0 16 24
d 0.576252 5 10 tcp 1040 ------- 0 1.0 8.0 16 24
d 0.576252 4 10 tcp 1040 ------- 0 1.0 8.0 16 24
d 0.576252 3 10 tcp 1040 ------- 0 1.0 8.0 16 24
d 0.576252 2 10 tcp 1040 ------- 0 1.0 8.0 16 24
d 0.576252 0 10 tcp 1040 ------- 0 1.0 8.0 16 24
r 0.57784 10 1 ack 40 ------- 0 8.0 1.0 15 46
h 0.57784 1 10 tcp 1040 ------- 0 1.0 8.0 31 47
h 0.57784 1 10 tcp 1040 ------- 0 1.0 8.0 32 48
r 0.578252 10 8 tcp 1040 ------- 0 1.0 8.0 16 24
h 0.578252 8 10 ack 40 ------- 0 8.0 1.0 16 49
+ 0.57984 1 10 tcp 1040 ------- 0 1.0 8.0 31 47
+ 0.57984 1 10 tcp 1040 ------- 0 1.0 8.0 32 48
+ 0.580252 8 10 ack 40 ------- 0 8.0 1.0 16 49
- 0.580252 8 10 ack 40 ------- 0 8.0 1.0 16 49
d 0.580256 9 10 ack 40 ------- 0 8.0 1.0 16 49
d 0.580256 7 10 ack 40 ------- 0 8.0 1.0 16 49
d 0.580256 6 10 ack 40 ------- 0 8.0 1.0 16 49
d 0.580256 5 10 ack 40 ------- 0 8.0 1.0 16 49
d 0.580256 4 10 ack 40 ------- 0 8.0 1.0 16 49
d 0.580256 3 10 ack 40 ------- 0 8.0 1.0 16 49
d 0.580256 2 10 ack 40 ------- 0 8.0 1.0 16 49
d 0.580256 0 10 ack 40 ------- 0 8.0 1.0 16 49
- 0.580664 1 10 tcp 1040 ------- 0 1.0 8.0 17 26
d 0.580668 9 10 tcp 1040 ------- 0 1.0 8.0 17 26
d 0.580668 7 10 tcp 1040 ------- 0 1.0 8.0 17 26
d 0.580668 6 10 tcp 1040 ------- 0 1.0 8.0 17 26
d 0.580668 5 10 tcp 1040 ------- 0 1.0 8.0 17 26
d 0.580668 4 10 tcp 1040 ------- 0 1.0 8.0 17 26
d 0.580668 3 10 tcp 1040 ------- 0 1.0 8.0 17 26
d 0.580668 2 10 tcp 1040 ------- 0 1.0 8.0 17 26
d 0.580668 0 10 tcp 1040 ------- 0 1.0 8.0 17 26
r 0.582256 10 1 ack 40 ------- 0 8.0 1.0 16 49
h 0.582256 1 10 tcp 1040 ------- 0 1.0 8.0 33 50
h 0.582256 1 10 tcp 1040 ------- 0 1.0 8.0 34 51
r 0.582668 10 8 tcp 1040 ------- 0 1.0 8.0 17 26
h 0.582668 8 10 ack 40 ------- 0 8.0 1.0 17 52
+ 0.584256 1 10 tcp 1040 ------- 0 1.0 8.0 33 50
+ 0.584256 1 10 tcp 1040 ------- 0 1.0 8.0 34 51
+ 0.584668 8 10 ack 40 ------- 0 8.0 1.0 17 52
- 0.584668 8 10 ack 40 ------- 0 8.0 1.0 17 52
d 0.584672 9 10 ack 40 ------- 0 8.0 1.0 17 52
d 0.584672 7 10 ack 40 ------- 0 8.0 1.0 17 52
d 0.584672 6 10 ack 40 ------- 0 8.0 1.0 17 52
d 0.584672 5 10 ack 40 ------- 0 8.0 1.0 17 52
d 0.584672 4 10 ack 40 ------- 0 8.0 1.0 17 52
d 0.584672 3 10 ack 40 ------- 0 8.0 1.0 17 52
d 0.584672 2 10 ack 40 ------- 0 8.0 1.0 17 52
d 0.584672 0 10 ack 40 ------- 0 8.0 1.0 17 52
- 0.58508 1 10 tcp 1040 ------- 0 1.0 8.0 18 27
d 0.585084 9 10 tcp 1040 ------- 0 1.0 8.0 18 27
d 0.585084 7 10 tcp 1040 ------- 0 1.0 8.0 18 27
d 0.585084 6 10 tcp 1040 ------- 0 1.0 8.0 18 27
d 0.585084 5 10 tcp 1040 ------- 0 1.0 8.0 18 27
d 0.585084 4 10 tcp 1040 ------- 0 1.0 8.0 18 27
d 0.585084 3 10 tcp 1040 ------- 0 1.0 8.0 18 27
d 0.585084 2 10 tcp 1040 ------- 0 1.0 8.0 18 27
d 0.585084 0 10 tcp 1040 ------- 0 1.0 8.0 18 27
r 0.586672 10 1 ack 40 ------- 0 8.0 1.0 17 52
h 0.586672 1 10 tcp 1040 ------- 0 1.0 8.0 35 53
h 0.586672 1 10 tcp 1040 ------- 0 1.0 8.0 36 54
r 0.587084 10 8 tcp 1040 ------- 0 1.0 8.0 18 27
h 0.587084 8 10 ack 40 ------- 0 8.0 1.0 18 55
+ 0.588672 1 10 tcp 1040 ------- 0 1.0 8.0 35 53
+ 0.588672 1 10 tcp 1040 ------- 0 1.0 8.0 36 54
+ 0.589084 8 10 ack 40 ------- 0 8.0 1.0 18 55
- 0.589084 8 10 ack 40 ------- 0 8.0 1.0 18 55
d 0.589088 9 10 ack 40 ------- 0 8.0 1.0 18 55
d 0.589088 7 10 ack 40 ------- 0 8.0 1.0 18 55
d 0.589088 6 10 ack 40 ------- 0 8.0 1.0 18 55
d 0.589088 5 10 ack 40 ------- 0 8.0 1.0 18 55
d 0.589088 4 10 ack 40 ------- 0 8.0 1.0 18 55
d 0.589088 3 10 ack 40 ------- 0 8.0 1.0 18 55
d 0.589088 2 10 ack 40 ------- 0 8.0 1.0 18 55
d 0.589088 0 10 ack 40 ------- 0 8.0 1.0 18 55
- 0.589496 1 10 tcp 1040 ------- 0 1.0 8.0 19 29
d 0.5895 9 10 tcp 1040 ------- 0 1.0 8.0 19 29
d 0.5895 7 10 tcp 1040 ------- 0 1.0 8.0 19 29
d 0.5895 6 10 tcp 1040 ------- 0 1.0 8.0 19 29
d 0.5895 5 10 tcp 1040 ------- 0 1.0 8.0 19 29
d 0.5895 4 10 tcp 1040 ------- 0 1.0 8.0 19 29
d 0.5895 3 10 tcp 1040 ------- 0 1.0 8.0 19 29
d 0.5895 2 10 tcp 1040 ------- 0 1.0 8.0 19 29
d 0.5895 0 10 tcp 1040 ------- 0 1.0 8.0 19 29
r 0.591088 10 1 ack 40 ------- 0 8.0 1.0 18 55
h 0.591088 1 10 tcp 1040 ------- 0 1.0 8.0 37 56
h 0.591088 1 10 tcp 1040 ------- 0 1.0 8.0 38 57
r 0.5915 10 8 tcp 1040 ------- 0 1.0 8.0 19 29
h 0.5915 8 10 ack 40 ------- 0 8.0 1.0 19 58
+ 0.593088 1 10 tcp 1040 ------- 0 1.0 8.0 37 56
+ 0.593088 1 10 tcp 1040 ------- 0 1.0 8.0 38 57
+ 0.5935 8 10 ack 40 ------- 0 8.0 1.0 19 58
- 0.5935 8 10 ack 40 ------- 0 8.0 1.0 19 58
d 0.593504 9 10 ack 40 ------- 0 8.0 1.0 19 58
d 0.593504 7 10 ack 40 ------- 0 8.0 1.0 19 58
d 0.593504 6 10 ack 40 ------- 0 8.0 1.0 19 58
d 0.593504 5 10 ack 40 ------- 0 8.0 1.0 19 58
d 0.593504 4 10 ack 40 ------- 0 8.0 1.0 19 58
d 0.593504 3 10 ack 40 ------- 0 8.0 1.0 19 58
d 0.593504 2 10 ack 40 ------- 0 8.0 1.0 19 58
d 0.593504 0 10 ack 40 ------- 0 8.0 1.0 19 58
- 0.593912 1 10 tcp 1040 ------- 0 1.0 8.0 20 30
d 0.593916 9 10 tcp 1040 ------- 0 1.0 8.0 20 30
d 0.593916 7 10 tcp 1040 ------- 0 1.0 8.0 20 30
d 0.593916 6 10 tcp 1040 ------- 0 1.0 8.0 20 30
d 0.593916 5 10 tcp 1040 ------- 0 1.0 8.0 20 30
d 0.593916 4 10 tcp 1040 ------- 0 1.0 8.0 20 30
d 0.593916 3 10 tcp 1040 ------- 0 1.0 8.0 20 30
d 0.593916 2 10 tcp 1040 ------- 0 1.0 8.0 20 30
d 0.593916 0 10 tcp 1040 ------- 0 1.0 8.0 20 30
r 0.595504 10 1 ack 40 ------- 0 8.0 1.0 19 58
h 0.595504 1 10 tcp 1040 ------- 0 1.0 8.0 39 59
r 0.595916 10 8 tcp 1040 ------- 0 1.0 8.0 20 30
h 0.595916 8 10 ack 40 ------- 0 8.0 1.0 20 60
+ 0.597504 1 10 tcp 1040 ------- 0 1.0 8.0 39 59
+ 0.597916 8 10 ack 40 ------- 0 8.0 1.0 20 60
- 0.597916 8 10 ack 40 ------- 0 8.0 1.0 20 60
d 0.59792 9 10 ack 40 ------- 0 8.0 1.0 20 60
d 0.59792 7 10 ack 40 ------- 0 8.0 1.0 20 60
d 0.59792 6 10 ack 40 ------- 0 8.0 1.0 20 60
d 0.59792 5 10 ack 40 ------- 0 8.0 1.0 20 60
d 0.59792 4 10 ack 40 ------- 0 8.0 1.0 20 60
d 0.59792 3 10 ack 40 ------- 0 8.0 1.0 20 60
d 0.59792 2 10 ack 40 ------- 0 8.0 1.0 20 60
d 0.59792 0 10 ack 40 ------- 0 8.0 1.0 20 60
- 0.598328 1 10 tcp 1040 ------- 0 1.0 8.0 21 32
d 0.598332 9 10 tcp 1040 ------- 0 1.0 8.0 21 32
d 0.598332 7 10 tcp 1040 ------- 0 1.0 8.0 21 32
d 0.598332 6 10 tcp 1040 ------- 0 1.0 8.0 21 32
d 0.598332 5 10 tcp 1040 ------- 0 1.0 8.0 21 32
d 0.598332 4 10 tcp 1040 ------- 0 1.0 8.0 21 32
d 0.598332 3 10 tcp 1040 ------- 0 1.0 8.0 21 32
d 0.598332 2 10 tcp 1040 ------- 0 1.0 8.0 21 32
d 0.598332 0 10 tcp 1040 ------- 0 1.0 8.0 21 32
r 0.59992 10 1 ack 40 ------- 0 8.0 1.0 20 60
h 0.59992 1 10 tcp 1040 ------- 0 1.0 8.0 40 61
r 0.600332 10 8 tcp 1040 ------- 0 1.0 8.0 21 32
h 0.600332 8 10 ack 40 ------- 0 8.0 1.0 21 62
+ 0.60192 1 10 tcp 1040 ------- 0 1.0 8.0 40 61
+ 0.602332 8 10 ack 40 ------- 0 8.0 1.0 21 62
- 0.602332 8 10 ack 40 ------- 0 8.0 1.0 21 62
d 0.602336 9 10 ack 40 ------- 0 8.0 1.0 21 62
d 0.602336 7 10 ack 40 ------- 0 8.0 1.0 21 62
d 0.602336 6 10 ack 40 ------- 0 8.0 1.0 21 62
d 0.602336 5 10 ack 40 ------- 0 8.0 1.0 21 62
d 0.602336 4 10 ack 40 ------- 0 8.0 1.0 21 62
d 0.602336 3 10 ack 40 ------- 0 8.0 1.0 21 62
d 0.602336 2 10 ack 40 ------- 0 8.0 1.0 21 62
d 0.602336 0 10 ack 40 ------- 0 8.0 1.0 21 62
- 0.602744 1 10 tcp 1040 ------- 0 1.0 8.0 22 33
d 0.602748 9 10 tcp 1040 ------- 0 1.0 8.0 22 33
d 0.602748 7 10 tcp 1040 ------- 0 1.0 8.0 22 33
d 0.602748 6 10 tcp 1040 ------- 0 1.0 8.0 22 33
d 0.602748 5 10 tcp 1040 ------- 0 1.0 8.0 22 33
d 0.602748 4 10 tcp 1040 ------- 0 1.0 8.0 22 33
d 0.602748 3 10 tcp 1040 ------- 0 1.0 8.0 22 33
d 0.602748 2 10 tcp 1040 ------- 0 1.0 8.0 22 33
d 0.602748 0 10 tcp 1040 ------- 0 1.0 8.0 22 33
r 0.604336 10 1 ack 40 ------- 0 8.0 1.0 21 62
h 0.604336 1 10 tcp 1040 ------- 0 1.0 8.0 41 63
r 0.604748 10 8 tcp 1040 ------- 0 1.0 8.0 22 33
h 0.604748 8 10 ack 40 ------- 0 8.0 1.0 22 64
+ 0.606336 1 10 tcp 1040 ------- 0 1.0 8.0 41 63
+ 0.606748 8 10 ack 40 ------- 0 8.0 1.0 22 64
- 0.606748 8 10 ack 40 ------- 0 8.0 1.0 22 64
d 0.606752 9 10 ack 40 ------- 0 8.0 1.0 22 64
d 0.606752 7 10 ack 40 ------- 0 8.0 1.0 22 64
d 0.606752 6 10 ack 40 ------- 0 8.0 1.0 22 64
d 0.606752 5 10 ack 40 ------- 0 8.0 1.0 22 64
d 0.606752 4 10 ack 40 ------- 0 8.0 1.0 22 64
d 0.606752 3 10 ack 40 ------- 0 8.0 1.0 22 64
d 0.606752 2 10 ack 40 ------- 0 8.0 1.0 22 64
d 0.606752 0 10 ack 40 ------- 0 8.0 1.0 22 64
- 0.60716 1 10 tcp 1040 ------- 0 1.0 8.0 23 35
d 0.607164 9 10 tcp 1040 ------- 0 1.0 8.0 23 35
d 0.607164 7 10 tcp 1040 ------- 0 1.0 8.0 23 35
d 0.607164 6 10 tcp 1040 ------- 0 1.0 8.0 23 35
d 0.607164 5 10 tcp 1040 ------- 0 1.0 8.0 23 35
d 0.607164 4 10 tcp 1040 ------- 0 1.0 8.0 23 35
d 0.607164 3 10 tcp 1040 ------- 0 1.0 8.0 23 35
d 0.607164 2 10 tcp 1040 ------- 0 1.0 8.0 23 35
d 0.607164 0 10 tcp 1040 ------- 0 1.0 8.0 23 35
r 0.608752 10 1 ack 40 ------- 0 8.0 1.0 22 64
h 0.608752 1 10 tcp 1040 ------- 0 1.0 8.0 42 65
r 0.609164 10 8 tcp 1040 ------- 0 1.0 8.0 23 35
h 0.609164 8 10 ack 40 ------- 0 8.0 1.0 23 66
+ 0.610752 1 10 tcp 1040 ------- 0 1.0 8.0 42 65
+ 0.611164 8 10 ack 40 ------- 0 8.0 1.0 23 66
- 0.611164 8 10 ack 40 ------- 0 8.0 1.0 23 66
d 0.611168 9 10 ack 40 ------- 0 8.0 1.0 23 66
d 0.611168 7 10 ack 40 ------- 0 8.0 1.0 23 66
d 0.611168 6 10 ack 40 ------- 0 8.0 1.0 23 66
d 0.611168 5 10 ack 40 ------- 0 8.0 1.0 23 66
d 0.611168 4 10 ack 40 ------- 0 8.0 1.0 23 66
d 0.611168 3 10 ack 40 ------- 0 8.0 1.0 23 66
d 0.611168 2 10 ack 40 ------- 0 8.0 1.0 23 66
d 0.611168 0 10 ack 40 ------- 0 8.0 1.0 23 66
- 0.611576 1 10 tcp 1040 ------- 0 1.0 8.0 24 36
d 0.61158 9 10 tcp 1040 ------- 0 1.0 8.0 24 36
d 0.61158 7 10 tcp 1040 ------- 0 1.0 8.0 24 36
d 0.61158 6 10 tcp 1040 ------- 0 1.0 8.0 24 36
d 0.61158 5 10 tcp 1040 ------- 0 1.0 8.0 24 36
d 0.61158 4 10 tcp 1040 ------- 0 1.0 8.0 24 36
d 0.61158 3 10 tcp 1040 ------- 0 1.0 8.0 24 36
d 0.61158 2 10 tcp 1040 ------- 0 1.0 8.0 24 36
d 0.61158 0 10 tcp 1040 ------- 0 1.0 8.0 24 36
r 0.613168 10 1 ack 40 ------- 0 8.0 1.0 23 66
h 0.613168 1 10 tcp 1040 ------- 0 1.0 8.0 43 67
r 0.61358 10 8 tcp 1040 ------- 0 1.0 8.0 24 36
h 0.61358 8 10 ack 40 ------- 0 8.0 1.0 24 68
+ 0.615168 1 10 tcp 1040 ------- 0 1.0 8.0 43 67
+ 0.61558 8 10 ack 40 ------- 0 8.0 1.0 24 68
- 0.61558 8 10 ack 40 ------- 0 8.0 1.0 24 68
d 0.615584 9 10 ack 40 ------- 0 8.0 1.0 24 68
d 0.615584 7 10 ack 40 ------- 0 8.0 1.0 24 68
d 0.615584 6 10 ack 40 ------- 0 8.0 1.0 24 68
d 0.615584 5 10 ack 40 ------- 0 8.0 1.0 24 68
d 0.615584 4 10 ack 40 ------- 0 8.0 1.0 24 68
d 0.615584 3 10 ack 40 ------- 0 8.0 1.0 24 68