+ 1 2 0 tcp 40 ------- 0 2.0 0.0 0 0
- 1 2 0 tcp 40 ------- 0 2.0 0.0 0 0
r 1.010032 2 0 tcp 40 ------- 0 2.0 0.0 0 0
+ 1.010032 0 2 ack 40 ------- 0 0.0 2.0 0 1
- 1.010032 0 2 ack 40 ------- 0 0.0 2.0 0 1
r 1.020064 0 2 ack 40 ------- 0 0.0 2.0 0 1
+ 1.020064 2 0 tcp 1040 ------- 0 2.0 0.0 1 2
- 1.020064 2 0 tcp 1040 ------- 0 2.0 0.0 1 2
+ 1.020064 2 0 tcp 1040 ------- 0 2.0 0.0 2 3
- 1.020896 2 0 tcp 1040 ------- 0 2.0 0.0 2 3
r 1.030896 2 0 tcp 1040 ------- 0 2.0 0.0 1 2
+ 1.030896 0 2 ack 40 ------- 0 0.0 2.0 1 4
- 1.030896 0 2 ack 40 ------- 0 0.0 2.0 1 4
r 1.031728 2 0 tcp 1040 ------- 0 2.0 0.0 2 3
+ 1.031728 0 2 ack 40 ------- 0 0.0 2.0 2 5
- 1.031728 0 2 ack 40 ------- 0 0.0 2.0 2 5
r 1.040928 0 2 ack 40 ------- 0 0.0 2.0 1 4
+ 1.040928 2 0 tcp 1040 ------- 0 2.0 0.0 3 6
- 1.040928 2 0 tcp 1040 ------- 0 2.0 0.0 3 6
+ 1.040928 2 0 tcp 1040 ------- 0 2.0 0.0 4 7
r 1.04176 0 2 ack 40 ------- 0 0.0 2.0 2 5
+ 1.04176 2 0 tcp 1040 ------- 0 2.0 0.0 5 8
+ 1.04176 2 0 tcp 1040 ------- 0 2.0 0.0 6 9
- 1.04176 2 0 tcp 1040 ------- 0 2.0 0.0 4 7
- 1.042592 2 0 tcp 1040 ------- 0 2.0 0.0 5 8
- 1.043424 2 0 tcp 1040 ------- 0 2.0 0.0 6 9
r 1.05176 2 0 tcp 1040 ------- 0 2.0 0.0 3 6
+ 1.05176 0 2 ack 40 ------- 0 0.0 2.0 3 10
- 1.05176 0 2 ack 40 ------- 0 0.0 2.0 3 10
r 1.052592 2 0 tcp 1040 ------- 0 2.0 0.0 4 7
+ 1.052592 0 2 ack 40 ------- 0 0.0 2.0 4 11
- 1.052592 0 2 ack 40 ------- 0 0.0 2.0 4 11
r 1.053424 2 0 tcp 1040 ------- 0 2.0 0.0 5 8
+ 1.053424 0 2 ack 40 ------- 0 0.0 2.0 5 12
- 1.053424 0 2 ack 40 ------- 0 0.0 2.0 5 12
r 1.054256 2 0 tcp 1040 ------- 0 2.0 0.0 6 9
+ 1.054256 0 2 ack 40 ------- 0 0.0 2.0 6 13
- 1.054256 0 2 ack 40 ------- 0 0.0 2.0 6 13
r 1.061792 0 2 ack 40 ------- 0 0.0 2.0 3 10
+ 1.061792 2 0 tcp 1040 ------- 0 2.0 0.0 7 14
- 1.061792 2 0 tcp 1040 ------- 0 2.0 0.0 7 14
+ 1.061792 2 0 tcp 1040 ------- 0 2.0 0.0 8 15
r 1.062624 0 2 ack 40 ------- 0 0.0 2.0 4 11
+ 1.062624 2 0 tcp 1040 ------- 0 2.0 0.0 9 16
+ 1.062624 2 0 tcp 1040 ------- 0 2.0 0.0 10 17
- 1.062624 2 0 tcp 1040 ------- 0 2.0 0.0 8 15
r 1.063456 0 2 ack 40 ------- 0 0.0 2.0 5 12
+ 1.063456 2 0 tcp 1040 ------- 0 2.0 0.0 11 18
+ 1.063456 2 0 tcp 1040 ------- 0 2.0 0.0 12 19
- 1.063456 2 0 tcp 1040 ------- 0 2.0 0.0 9 16
r 1.064288 0 2 ack 40 ------- 0 0.0 2.0 6 13
+ 1.064288 2 0 tcp 1040 ------- 0 2.0 0.0 13 20
+ 1.064288 2 0 tcp 1040 ------- 0 2.0 0.0 14 21
- 1.064288 2 0 tcp 1040 ------- 0 2.0 0.0 10 17
- 1.06512 2 0 tcp 1040 ------- 0 2.0 0.0 11 18
- 1.065952 2 0 tcp 1040 ------- 0 2.0 0.0 12 19
- 1.066784 2 0 tcp 1040 ------- 0 2.0 0.0 13 20
- 1.067616 2 0 tcp 1040 ------- 0 2.0 0.0 14 21
r 1.072624 2 0 tcp 1040 ------- 0 2.0 0.0 7 14
+ 1.072624 0 2 ack 40 ------- 0 0.0 2.0 7 22
- 1.072624 0 2 ack 40 ------- 0 0.0 2.0 7 22
r 1.073456 2 0 tcp 1040 ------- 0 2.0 0.0 8 15
+ 1.073456 0 2 ack 40 ------- 0 0.0 2.0 8 23
- 1.073456 0 2 ack 40 ------- 0 0.0 2.0 8 23
r 1.074288 2 0 tcp 1040 ------- 0 2.0 0.0 9 16
+ 1.074288 0 2 ack 40 ------- 0 0.0 2.0 9 24
- 1.074288 0 2 ack 40 ------- 0 0.0 2.0 9 24
r 1.07512 2 0 tcp 1040 ------- 0 2.0 0.0 10 17
+ 1.07512 0 2 ack 40 ------- 0 0.0 2.0 10 25
- 1.07512 0 2 ack 40 ------- 0 0.0 2.0 10 25
r 1.075952 2 0 tcp 1040 ------- 0 2.0 0.0 11 18
+ 1.075952 0 2 ack 40 ------- 0 0.0 2.0 11 26
- 1.075952 0 2 ack 40 ------- 0 0.0 2.0 11 26
r 1.076784 2 0 tcp 1040 ------- 0 2.0 0.0 12 19
+ 1.076784 0 2 ack 40 ------- 0 0.0 2.0 12 27
- 1.076784 0 2 ack 40 ------- 0 0.0 2.0 12 27
r 1.077616 2 0 tcp 1040 ------- 0 2.0 0.0 13 20
+ 1.077616 0 2 ack 40 ------- 0 0.0 2.0 13 28
- 1.077616 0 2 ack 40 ------- 0 0.0 2.0 13 28
r 1.078448 2 0 tcp 1040 ------- 0 2.0 0.0 14 21
+ 1.078448 0 2 ack 40 ------- 0 0.0 2.0 14 29
- 1.078448 0 2 ack 40 ------- 0 0.0 2.0 14 29
r 1.082656 0 2 ack 40 ------- 0 0.0 2.0 7 22
+ 1.082656 2 0 tcp 1040 ------- 0 2.0 0.0 15 30
- 1.082656 2 0 tcp 1040 ------- 0 2.0 0.0 15 30
+ 1.082656 2 0 tcp 1040 ------- 0 2.0 0.0 16 31
r 1.083488 0 2 ack 40 ------- 0 0.0 2.0 8 23
+ 1.083488 2 0 tcp 1040 ------- 0 2.0 0.0 17 32
+ 1.083488 2 0 tcp 1040 ------- 0 2.0 0.0 18 33
- 1.083488 2 0 tcp 1040 ------- 0 2.0 0.0 16 31
r 1.08432 0 2 ack 40 ------- 0 0.0 2.0 9 24
+ 1.08432 2 0 tcp 1040 ------- 0 2.0 0.0 19 34
+ 1.08432 2 0 tcp 1040 ------- 0 2.0 0.0 20 35
- 1.08432 2 0 tcp 1040 ------- 0 2.0 0.0 17 32
r 1.085152 0 2 ack 40 ------- 0 0.0 2.0 10 25
+ 1.085152 2 0 tcp 1040 ------- 0 2.0 0.0 21 36
+ 1.085152 2 0 tcp 1040 ------- 0 2.0 0.0 22 37
- 1.085152 2 0 tcp 1040 ------- 0 2.0 0.0 18 33
r 1.085984 0 2 ack 40 ------- 0 0.0 2.0 11 26
+ 1.085984 2 0 tcp 1040 ------- 0 2.0 0.0 23 38
+ 1.085984 2 0 tcp 1040 ------- 0 2.0 0.0 24 39
- 1.085984 2 0 tcp 1040 ------- 0 2.0 0.0 19 34
r 1.086816 0 2 ack 40 ------- 0 0.0 2.0 12 27
+ 1.086816 2 0 tcp 1040 ------- 0 2.0 0.0 25 40
+ 1.086816 2 0 tcp 1040 ------- 0 2.0 0.0 26 41
- 1.086816 2 0 tcp 1040 ------- 0 2.0 0.0 20 35
r 1.087648 0 2 ack 40 ------- 0 0.0 2.0 13 28
+ 1.087648 2 0 tcp 1040 ------- 0 2.0 0.0 27 42
+ 1.087648 2 0 tcp 1040 ------- 0 2.0 0.0 28 43
- 1.087648 2 0 tcp 1040 ------- 0 2.0 0.0 21 36
r 1.08848 0 2 ack 40 ------- 0 0.0 2.0 14 29
+ 1.08848 2 0 tcp 1040 ------- 0 2.0 0.0 29 44
+ 1.08848 2 0 tcp 1040 ------- 0 2.0 0.0 30 45
- 1.08848 2 0 tcp 1040 ------- 0 2.0 0.0 22 37
- 1.089312 2 0 tcp 1040 ------- 0 2.0 0.0 23 38
- 1.090144 2 0 tcp 1040 ------- 0 2.0 0.0 24 39
- 1.090976 2 0 tcp 1040 ------- 0 2.0 0.0 25 40
- 1.091808 2 0 tcp 1040 ------- 0 2.0 0.0 26 41
- 1.09264 2 0 tcp 1040 ------- 0 2.0 0.0 27 42
- 1.093472 2 0 tcp 1040 ------- 0 2.0 0.0 28 43
r 1.093488 2 0 tcp 1040 ------- 0 2.0 0.0 15 30
+ 1.093488 0 2 ack 40 ------- 0 0.0 2.0 15 46
- 1.093488 0 2 ack 40 ------- 0 0.0 2.0 15 46
- 1.094304 2 0 tcp 1040 ------- 0 2.0 0.0 29 44
r 1.09432 2 0 tcp 1040 ------- 0 2.0 0.0 16 31
+ 1.09432 0 2 ack 40 ------- 0 0.0 2.0 16 47
- 1.09432 0 2 ack 40 ------- 0 0.0 2.0 16 47
- 1.095136 2 0 tcp 1040 ------- 0 2.0 0.0 30 45
r 1.095152 2 0 tcp 1040 ------- 0 2.0 0.0 17 32
+ 1.095152 0 2 ack 40 ------- 0 0.0 2.0 17 48
- 1.095152 0 2 ack 40 ------- 0 0.0 2.0 17 48
r 1.095984 2 0 tcp 1040 ------- 0 2.0 0.0 18 33
+ 1.095984 0 2 ack 40 ------- 0 0.0 2.0 18 49
- 1.095984 0 2 ack 40 ------- 0 0.0 2.0 18 49
r 1.096816 2 0 tcp 1040 ------- 0 2.0 0.0 19 34
+ 1.096816 0 2 ack 40 ------- 0 0.0 2.0 19 50
- 1.096816 0 2 ack 40 ------- 0 0.0 2.0 19 50
r 1.097648 2 0 tcp 1040 ------- 0 2.0 0.0 20 35
+ 1.097648 0 2 ack 40 ------- 0 0.0 2.0 20 51
- 1.097648 0 2 ack 40 ------- 0 0.0 2.0 20 51
r 1.09848 2 0 tcp 1040 ------- 0 2.0 0.0 21 36
+ 1.09848 0 2 ack 40 ------- 0 0.0 2.0 21 52
- 1.09848 0 2 ack 40 ------- 0 0.0 2.0 21 52
r 1.099312 2 0 tcp 1040 ------- 0 2.0 0.0 22 37
+ 1.099312 0 2 ack 40 ------- 0 0.0 2.0 22 53
- 1.099312 0 2 ack 40 ------- 0 0.0 2.0 22 53
r 1.100144 2 0 tcp 1040 ------- 0 2.0 0.0 23 38
+ 1.100144 0 2 ack 40 ------- 0 0.0 2.0 23 54
- 1.100144 0 2 ack 40 ------- 0 0.0 2.0 23 54
r 1.100976 2 0 tcp 1040 ------- 0 2.0 0.0 24 39
+ 1.100976 0 2 ack 40 ------- 0 0.0 2.0 24 55
- 1.100976 0 2 ack 40 ------- 0 0.0 2.0 24 55
r 1.101808 2 0 tcp 1040 ------- 0 2.0 0.0 25 40
+ 1.101808 0 2 ack 40 ------- 0 0.0 2.0 25 56
- 1.101808 0 2 ack 40 ------- 0 0.0 2.0 25 56
r 1.10264 2 0 tcp 1040 ------- 0 2.0 0.0 26 41
+ 1.10264 0 2 ack 40 ------- 0 0.0 2.0 26 57
- 1.10264 0 2 ack 40 ------- 0 0.0 2.0 26 57
r 1.103472 2 0 tcp 1040 ------- 0 2.0 0.0 27 42
+ 1.103472 0 2 ack 40 ------- 0 0.0 2.0 27 58
- 1.103472 0 2 ack 40 ------- 0 0.0 2.0 27 58
r 1.10352 0 2 ack 40 ------- 0 0.0 2.0 15 46
+ 1.10352 2 0 tcp 1040 ------- 0 2.0 0.0 31 59
- 1.10352 2 0 tcp 1040 ------- 0 2.0 0.0 31 59
+ 1.10352 2 0 tcp 1040 ------- 0 2.0 0.0 32 60
r 1.104304 2 0 tcp 1040 ------- 0 2.0 0.0 28 43
+ 1.104304 0 2 ack 40 ------- 0 0.0 2.0 28 61
- 1.104304 0 2 ack 40 ------- 0 0.0 2.0 28 61
r 1.104352 0 2 ack 40 ------- 0 0.0 2.0 16 47
+ 1.104352 2 0 tcp 1040 ------- 0 2.0 0.0 33 62
+ 1.104352 2 0 tcp 1040 ------- 0 2.0 0.0 34 63
- 1.104352 2 0 tcp 1040 ------- 0 2.0 0.0 32 60
r 1.105136 2 0 tcp 1040 ------- 0 2.0 0.0 29 44
+ 1.105136 0 2 ack 40 ------- 0 0.0 2.0 29 64
- 1.105136 0 2 ack 40 ------- 0 0.0 2.0 29 64
r 1.105184 0 2 ack 40 ------- 0 0.0 2.0 17 48
+ 1.105184 2 0 tcp 1040 ------- 0 2.0 0.0 35 65
+ 1.105184 2 0 tcp 1040 ------- 0 2.0 0.0 36 66
- 1.105184 2 0 tcp 1040 ------- 0 2.0 0.0 33 62
r 1.105968 2 0 tcp 1040 ------- 0 2.0 0.0 30 45
+ 1.105968 0 2 ack 40 ------- 0 0.0 2.0 30 67
- 1.105968 0 2 ack 40 ------- 0 0.0 2.0 30 67
r 1.106016 0 2 ack 40 ------- 0 0.0 2.0 18 49
+ 1.106016 2 0 tcp 1040 ------- 0 2.0 0.0 37 68
+ 1.106016 2 0 tcp 1040 ------- 0 2.0 0.0 38 69
- 1.106016 2 0 tcp 1040 ------- 0 2.0 0.0 34 63
r 1.106848 0 2 ack 40 ------- 0 0.0 2.0 19 50
+ 1.106848 2 0 tcp 1040 ------- 0 2.0 0.0 39 70
- 1.106848 2 0 tcp 1040 ------- 0 2.0 0.0 35 65
r 1.10768 0 2 ack 40 ------- 0 0.0 2.0 20 51
+ 1.10768 2 0 tcp 1040 ------- 0 2.0 0.0 40 71
- 1.10768 2 0 tcp 1040 ------- 0 2.0 0.0 36 66
r 1.108512 0 2 ack 40 ------- 0 0.0 2.0 21 52
+ 1.108512 2 0 tcp 1040 ------- 0 2.0 0.0 41 72
- 1.108512 2 0 tcp 1040 ------- 0 2.0 0.0 37 68
r 1.109344 0 2 ack 40 ------- 0 0.0 2.0 22 53
+ 1.109344 2 0 tcp 1040 ------- 0 2.0 0.0 42 73
- 1.109344 2 0 tcp 1040 ------- 0 2.0 0.0 38 69
r 1.110176 0 2 ack 40 ------- 0 0.0 2.0 23 54
+ 1.110176 2 0 tcp 1040 ------- 0 2.0 0.0 43 74
- 1.110176 2 0 tcp 1040 ------- 0 2.0 0.0 39 70
r 1.111008 0 2 ack 40 ------- 0 0.0 2.0 24 55
+ 1.111008 2 0 tcp 1040 ------- 0 2.0 0.0 44 75
- 1.111008 2 0 tcp 1040 ------- 0 2.0 0.0 40 71
r 1.11184 0 2 ack 40 ------- 0 0.0 2.0 25 56
+ 1.11184 2 0 tcp 1040 ------- 0 2.0 0.0 45 76
- 1.11184 2 0 tcp 1040 ------- 0 2.0 0.0 41 72
r 1.112672 0 2 ack 40 ------- 0 0.0 2.0 26 57
+ 1.112672 2 0 tcp 1040 ------- 0 2.0 0.0 46 77
- 1.112672 2 0 tcp 1040 ------- 0 2.0 0.0 42 73
r 1.113504 0 2 ack 40 ------- 0 0.0 2.0 27 58
+ 1.113504 2 0 tcp 1040 ------- 0 2.0 0.0 47 78
- 1.113504 2 0 tcp 1040 ------- 0 2.0 0.0 43 74
r 1.114336 0 2 ack 40 ------- 0 0.0 2.0 28 61
+ 1.114336 2 0 tcp 1040 ------- 0 2.0 0.0 48 79
- 1.114336 2 0 tcp 1040 ------- 0 2.0 0.0 44 75
r 1.114352 2 0 tcp 1040 ------- 0 2.0 0.0 31 59
+ 1.114352 0 2 ack 40 ------- 0 0.0 2.0 31 80
- 1.114352 0 2 ack 40 ------- 0 0.0 2.0 31 80
r 1.115168 0 2 ack 40 ------- 0 0.0 2.0 29 64
+ 1.115168 2 0 tcp 1040 ------- 0 2.0 0.0 49 81
- 1.115168 2 0 tcp 1040 ------- 0 2.0 0.0 45 76
r 1.115184 2 0 tcp 1040 ------- 0 2.0 0.0 32 60
+ 1.115184 0 2 ack 40 ------- 0 0.0 2.0 32 82
- 1.115184 0 2 ack 40 ------- 0 0.0 2.0 32 82
r 1.116 0 2 ack 40 ------- 0 0.0 2.0 30 67
+ 1.116 2 0 tcp 1040 ------- 0 2.0 0.0 50 83
- 1.116 2 0 tcp 1040 ------- 0 2.0 0.0 46 77
r 1.116016 2 0 tcp 1040 ------- 0 2.0 0.0 33 62
+ 1.116016 0 2 ack 40 ------- 0 0.0 2.0 33 84
- 1.116016 0 2 ack 40 ------- 0 0.0 2.0 33 84
- 1.116832 2 0 tcp 1040 ------- 0 2.0 0.0 47 78
r 1.116848 2 0 tcp 1040 ------- 0 2.0 0.0 34 63
+ 1.116848 0 2 ack 40 ------- 0 0.0 2.0 34 85
- 1.116848 0 2 ack 40 ------- 0 0.0 2.0 34 85
- 1.117664 2 0 tcp 1040 ------- 0 2.0 0.0 48 79
r 1.11768 2 0 tcp 1040 ------- 0 2.0 0.0 35 65
+ 1.11768 0 2 ack 40 ------- 0 0.0 2.0 35 86
- 1.11768 0 2 ack 40 ------- 0 0.0 2.0 35 86
- 1.118496 2 0 tcp 1040 ------- 0 2.0 0.0 49 81
r 1.118512 2 0 tcp 1040 ------- 0 2.0 0.0 36 66
+ 1.118512 0 2 ack 40 ------- 0 0.0 2.0 36 87
- 1.118512 0 2 ack 40 ------- 0 0.0 2.0 36 87
- 1.119328 2 0 tcp 1040 ------- 0 2.0 0.0 50 83
r 1.119344 2 0 tcp 1040 ------- 0 2.0 0.0 37 68
+ 1.119344 0 2 ack 40 ------- 0 0.0 2.0 37 88
- 1.119344 0 2 ack 40 ------- 0 0.0 2.0 37 88
r 1.120176 2 0 tcp 1040 ------- 0 2.0 0.0 38 69
+ 1.120176 0 2 ack 40 ------- 0 0.0 2.0 38 89
- 1.120176 0 2 ack 40 ------- 0 0.0 2.0 38 89
r 1.121008 2 0 tcp 1040 ------- 0 2.0 0.0 39 70
+ 1.121008 0 2 ack 40 ------- 0 0.0 2.0 39 90
- 1.121008 0 2 ack 40 ------- 0 0.0 2.0 39 90
r 1.12184 2 0 tcp 1040 ------- 0 2.0 0.0 40 71
+ 1.12184 0 2 ack 40 ------- 0 0.0 2.0 40 91
- 1.12184 0 2 ack 40 ------- 0 0.0 2.0 40 91
r 1.122672 2 0 tcp 1040 ------- 0 2.0 0.0 41 72
+ 1.122672 0 2 ack 40 ------- 0 0.0 2.0 41 92
- 1.122672 0 2 ack 40 ------- 0 0.0 2.0 41 92
r 1.123504 2 0 tcp 1040 ------- 0 2.0 0.0 42 73
+ 1.123504 0 2 ack 40 ------- 0 0.0 2.0 42 93
- 1.123504 0 2 ack 40 ------- 0 0.0 2.0 42 93
r 1.124336 2 0 tcp 1040 ------- 0 2.0 0.0 43 74
+ 1.124336 0 2 ack 40 ------- 0 0.0 2.0 43 94
- 1.124336 0 2 ack 40 ------- 0 0.0 2.0 43 94
r 1.124384 0 2 ack 40 ------- 0 0.0 2.0 31 80
+ 1.124384 2 0 tcp 1040 ------- 0 2.0 0.0 51 95
- 1.124384 2 0 tcp 1040 ------- 0 2.0 0.0 51 95
r 1.125168 2 0 tcp 1040 ------- 0 2.0 0.0 44 75
+ 1.125168 0 2 ack 40 ------- 0 0.0 2.0 44 96
- 1.125168 0 2 ack 40 ------- 0 0.0 2.0 44 96
r 1.125216 0 2 ack 40 ------- 0 0.0 2.0 32 82
+ 1.125216 2 0 tcp 1040 ------- 0 2.0 0.0 52 97
- 1.125216 2 0 tcp 1040 ------- 0 2.0 0.0 52 97
r 1.126 2 0 tcp 1040 ------- 0 2.0 0.0 45 76
+ 1.126 0 2 ack 40 ------- 0 0.0 2.0 45 98
- 1.126 0 2 ack 40 ------- 0 0.0 2.0 45 98
r 1.126048 0 2 ack 40 ------- 0 0.0 2.0 33 84
+ 1.126048 2 0 tcp 1040 ------- 0 2.0 0.0 53 99
- 1.126048 2 0 tcp 1040 ------- 0 2.0 0.0 53 99
r 1.126832 2 0 tcp 1040 ------- 0 2.0 0.0 46 77
+ 1.126832 0 2 ack 40 ------- 0 0.0 2.0 46 100
- 1.126832 0 2 ack 40 ------- 0 0.0 2.0 46 100
r 1.12688 0 2 ack 40 ------- 0 0.0 2.0 34 85
+ 1.12688 2 0 tcp 1040 ------- 0 2.0 0.0 54 101
- 1.12688 2 0 tcp 1040 ------- 0 2.0 0.0 54 101
r 1.127664 2 0 tcp 1040 ------- 0 2.0 0.0 47 78
+ 1.127664 0 2 ack 40 ------- 0 0.0 2.0 47 102
- 1.127664 0 2 ack 40 ------- 0 0.0 2.0 47 102
r 1.127712 0 2 ack 40 ------- 0 0.0 2.0 35 86
+ 1.127712 2 0 tcp 1040 ------- 0 2.0 0.0 55 103
- 1.127712 2 0 tcp 1040 ------- 0 2.0 0.0 55 103
r 1.128496 2 0 tcp 1040 ------- 0 2.0 0.0 48 79
+ 1.128496 0 2 ack 40 ------- 0 0.0 2.0 48 104
- 1.128496 0 2 ack 40 ------- 0 0.0 2.0 48 104
r 1.128544 0 2 ack 40 ------- 0 0.0 2.0 36 87
+ 1.128544 2 0 tcp 1040 ------- 0 2.0 0.0 56 105
- 1.128544 2 0 tcp 1040 ------- 0 2.0 0.0 56 105
r 1.129328 2 0 tcp 1040 ------- 0 2.0 0.0 49 81
+ 1.129328 0 2 ack 40 ------- 0 0.0 2.0 49 106
- 1.129328 0 2 ack 40 ------- 0 0.0 2.0 49 106
r 1.129376 0 2 ack 40 ------- 0 0.0 2.0 37 88
+ 1.129376 2 0 tcp 1040 ------- 0 2.0 0.0 57 107
- 1.129376 2 0 tcp 1040 ------- 0 2.0 0.0 57 107
r 1.13016 2 0 tcp 1040 ------- 0 2.0 0.0 50 83
+ 1.13016 0 2 ack 40 ------- 0 0.0 2.0 50 108
- 1.13016 0 2 ack 40 ------- 0 0.0 2.0 50 108
r 1.130208 0 2 ack 40 ------- 0 0.0 2.0 38 89
+ 1.130208 2 0 tcp 1040 ------- 0 2.0 0.0 58 109
- 1.130208 2 0 tcp 1040 ------- 0 2.0 0.0 58 109
r 1.13104 0 2 ack 40 ------- 0 0.0 2.0 39 90
+ 1.13104 2 0 tcp 1040 ------- 0 2.0 0.0 59 110
- 1.13104 2 0 tcp 1040 ------- 0 2.0 0.0 59 110
r 1.131872 0 2 ack 40 ------- 0 0.0 2.0 40 91
+ 1.131872 2 0 tcp 1040 ------- 0 2.0 0.0 60 111
- 1.131872 2 0 tcp 1040 ------- 0 2.0 0.0 60 111
r 1.132704 0 2 ack 40 ------- 0 0.0 2.0 41 92
+ 1.132704 2 0 tcp 1040 ------- 0 2.0 0.0 61 112
- 1.132704 2 0 tcp 1040 ------- 0 2.0 0.0 61 112
r 1.133536 0 2 ack 40 ------- 0 0.0 2.0 42 93
+ 1.133536 2 0 tcp 1040 ------- 0 2.0 0.0 62 113
- 1.133536 2 0 tcp 1040 ------- 0 2.0 0.0 62 113
r 1.134368 0 2 ack 40 ------- 0 0.0 2.0 43 94
+ 1.134368 2 0 tcp 1040 ------- 0 2.0 0.0 63 114
- 1.134368 2 0 tcp 1040 ------- 0 2.0 0.0 63 114
r 1.1352 0 2 ack 40 ------- 0 0.0 2.0 44 96
+ 1.1352 2 0 tcp 1040 ------- 0 2.0 0.0 64 115
- 1.1352 2 0 tcp 1040 ------- 0 2.0 0.0 64 115
r 1.135216 2 0 tcp 1040 ------- 0 2.0 0.0 51 95
+ 1.135216 0 2 ack 40 ------- 0 0.0 2.0 51 116
- 1.135216 0 2 ack 40 ------- 0 0.0 2.0 51 116
r 1.136032 0 2 ack 40 ------- 0 0.0 2.0 45 98
+ 1.136032 2 0 tcp 1040 ------- 0 2.0 0.0 65 117
- 1.136032 2 0 tcp 1040 ------- 0 2.0 0.0 65 117
r 1.136048 2 0 tcp 1040 ------- 0 2.0 0.0 52 97
+ 1.136048 0 2 ack 40 ------- 0 0.0 2.0 52 118
- 1.136048 0 2 ack 40 ------- 0 0.0 2.0 52 118
r 1.136864 0 2 ack 40 ------- 0 0.0 2.0 46 100
+ 1.136864 2 0 tcp 1040 ------- 0 2.0 0.0 66 119
- 1.136864 2 0 tcp 1040 ------- 0 2.0 0.0 66 119
r 1.13688 2 0 tcp 1040 ------- 0 2.0 0.0 53 99
+ 1.13688 0 2 ack 40 ------- 0 0.0 2.0 53 120
- 1.13688 0 2 ack 40 ------- 0 0.0 2.0 53 120
r 1.137696 0 2 ack 40 ------- 0 0.0 2.0 47 102
+ 1.137696 2 0 tcp 1040 ------- 0 2.0 0.0 67 121
- 1.137696 2 0 tcp 1040 ------- 0 2.0 0.0 67 121
r 1.137712 2 0 tcp 1040 ------- 0 2.0 0.0 54 101
+ 1.137712 0 2 ack 40 ------- 0 0.0 2.0 54 122
- 1.137712 0 2 ack 40 ------- 0 0.0 2.0 54 122
r 1.138528 0 2 ack 40 ------- 0 0.0 2.0 48 104
+ 1.138528 2 0 tcp 1040 ------- 0 2.0 0.0 68 123
- 1.138528 2 0 tcp 1040 ------- 0 2.0 0.0 68 123
r 1.138544 2 0 tcp 1040 ------- 0 2.0 0.0 55 103
+ 1.138544 0 2 ack 40 ------- 0 0.0 2.0 55 124
- 1.138544 0 2 ack 40 ------- 0 0.0 2.0 55 124
r 1.13936 0 2 ack 40 ------- 0 0.0 2.0 49 106
+ 1.13936 2 0 tcp 1040 ------- 0 2.0 0.0 69 125
- 1.13936 2 0 tcp 1040 ------- 0 2.0 0.0 69 125
r 1.139376 2 0 tcp 1040 ------- 0 2.0 0.0 56 105
+ 1.139376 0 2 ack 40 ------- 0 0.0 2.0 56 126
- 1.139376 0 2 ack 40 ------- 0 0.0 2.0 56 126
r 1.140192 0 2 ack 40 ------- 0 0.0 2.0 50 108
+ 1.140192 2 0 tcp 1040 ------- 0 2.0 0.0 70 127
- 1.140192 2 0 tcp 1040 ------- 0 2.0 0.0 70 127
r 1.140208 2 0 tcp 1040 ------- 0 2.0 0.0 57 107
+ 1.140208 0 2 ack 40 ------- 0 0.0 2.0 57 128
- 1.140208 0 2 ack 40 ------- 0 0.0 2.0 57 128
r 1.14104 2 0 tcp 1040 ------- 0 2.0 0.0 58 109
+ 1.14104 0 2 ack 40 ------- 0 0.0 2.0 58 129
- 1.14104 0 2 ack 40 ------- 0 0.0 2.0 58 129
r 1.141872 2 0 tcp 1040 ------- 0 2.0 0.0 59 110
+ 1.141872 0 2 ack 40 ------- 0 0.0 2.0 59 130
- 1.141872 0 2 ack 40 ------- 0 0.0 2.0 59 130
r 1.142704 2 0 tcp 1040 ------- 0 2.0 0.0 60 111
+ 1.142704 0 2 ack 40 ------- 0 0.0 2.0 60 131
- 1.142704 0 2 ack 40 ------- 0 0.0 2.0 60 131
r 1.143536 2 0 tcp 1040 ------- 0 2.0 0.0 61 112
+ 1.143536 0 2 ack 40 ------- 0 0.0 2.0 61 132
- 1.143536 0 2 ack 40 ------- 0 0.0 2.0 61 132
r 1.144368 2 0 tcp 1040 ------- 0 2.0 0.0 62 113
+ 1.144368 0 2 ack 40 ------- 0 0.0 2.0 62 133
- 1.144368 0 2 ack 40 ------- 0 0.0 2.0 62 133
r 1.1452 2 0 tcp 1040 ------- 0 2.0 0.0 63 114
+ 1.1452 0 2 ack 40 ------- 0 0.0 2.0 63 134
- 1.1452 0 2 ack 40 ------- 0 0.0 2.0 63 134
r 1.145248 0 2 ack 40 ------- 0 0.0 2.0 51 116
+ 1.145248 2 0 tcp 1040 ------- 0 2.0 0.0 71 135
- 1.145248 2 0 tcp 1040 ------- 0 2.0 0.0 71 135
r 1.146032 2 0 tcp 1040 ------- 0 2.0 0.0 64 115
+ 1.146032 0 2 ack 40 ------- 0 0.0 2.0 64 136
- 1.146032 0 2 ack 40 ------- 0 0.0 2.0 64 136
r 1.14608 0 2 ack 40 ------- 0 0.0 2.0 52 118
+ 1.14608 2 0 tcp 1040 ------- 0 2.0 0.0 72 137
- 1.14608 2 0 tcp 1040 ------- 0 2.0 0.0 72 137
r 1.146864 2 0 tcp 1040 ------- 0 2.0 0.0 65 117
+ 1.146864 0 2 ack 40 ------- 0 0.0 2.0 65 138
- 1.146864 0 2 ack 40 ------- 0 0.0 2.0 65 138
r 1.146912 0 2 ack 40 ------- 0 0.0 2.0 53 120
+ 1.146912 2 0 tcp 1040 ------- 0 2.0 0.0 73 139
- 1.146912 2 0 tcp 1040 ------- 0 2.0 0.0 73 139
r 1.147696 2 0 tcp 1040 ------- 0 2.0 0.0 66 119
+ 1.147696 0 2 ack 40 ------- 0 0.0 2.0 66 140
- 1.147696 0 2 ack 40 ------- 0 0.0 2.0 66 140
r 1.147744 0 2 ack 40 ------- 0 0.0 2.0 54 122
+ 1.147744 2 0 tcp 1040 ------- 0 2.0 0.0 74 141
- 1.147744 2 0 tcp 1040 ------- 0 2.0 0.0 74 141
r 1.148528 2 0 tcp 1040 ------- 0 2.0 0.0 67 121
+ 1.148528 0 2 ack 40 ------- 0 0.0 2.0 67 142
- 1.148528 0 2 ack 40 ------- 0 0.0 2.0 67 142
r 1.148576 0 2 ack 40 ------- 0 0.0 2.0 55 124
+ 1.148576 2 0 tcp 1040 ------- 0 2.0 0.0 75 143
- 1.148576 2 0 tcp 1040 ------- 0 2.0 0.0 75 143
r 1.14936 2 0 tcp 1040 ------- 0 2.0 0.0 68 123
+ 1.14936 0 2 ack 40 ------- 0 0.0 2.0 68 144
- 1.14936 0 2 ack 40 ------- 0 0.0 2.0 68 144
r 1.149408 0 2 ack 40 ------- 0 0.0 2.0 56 126
+ 1.149408 2 0 tcp 1040 ------- 0 2.0 0.0 76 145
- 1.149408 2 0 tcp 1040 ------- 0 2.0 0.0 76 145
r 1.150192 2 0 tcp 1040 ------- 0 2.0 0.0 69 125
+ 1.150192 0 2 ack 40 ------- 0 0.0 2.0 69 146
- 1.150192 0 2 ack 40 ------- 0 0.0 2.0 69 146
r 1.15024 0 2 ack 40 ------- 0 0.0 2.0 57 128
+ 1.15024 2 0 tcp 1040 ------- 0 2.0 0.0 77 147
- 1.15024 2 0 tcp 1040 ------- 0 2.0 0.0 77 147
r 1.151024 2 0 tcp 1040 ------- 0 2.0 0.0 70 127
+ 1.151024 0 2 ack 40 ------- 0 0.0 2.0 70 148
- 1.151024 0 2 ack 40 ------- 0 0.0 2.0 70 148
r 1.151072 0 2 ack 40 ------- 0 0.0 2.0 58 129
+ 1.151072 2 0 tcp 1040 ------- 0 2.0 0.0 78 149
- 1.151072 2 0 tcp 1040 ------- 0 2.0 0.0 78 149
r 1.151904 0 2 ack 40 ------- 0 0.0 2.0 59 130
+ 1.151904 2 0 tcp 1040 ------- 0 2.0 0.0 79 150
- 1.151904 2 0 tcp 1040 ------- 0 2.0 0.0 79 150
r 1.152736 0 2 ack 40 ------- 0 0.0 2.0 60 131
+ 1.152736 2 0 tcp 1040 ------- 0 2.0 0.0 80 151
- 1.152736 2 0 tcp 1040 ------- 0 2.0 0.0 80 151
r 1.153568 0 2 ack 40 ------- 0 0.0 2.0 61 132
+ 1.153568 2 0 tcp 1040 ------- 0 2.0 0.0 81 152
- 1.153568 2 0 tcp 1040 ------- 0 2.0 0.0 81 152
r 1.1544 0 2 ack 40 ------- 0 0.0 2.0 62 133
+ 1.1544 2 0 tcp 1040 ------- 0 2.0 0.0 82 153
- 1.1544 2 0 tcp 1040 ------- 0 2.0 0.0 82 153
r 1.155232 0 2 ack 40 ------- 0 0.0 2.0 63 134
+ 1.155232 2 0 tcp 1040 ------- 0 2.0 0.0 83 154
- 1.155232 2 0 tcp 1040 ------- 0 2.0 0.0 83 154
r 1.156064 0 2 ack 40 ------- 0 0.0 2.0 64 136
+ 1.156064 2 0 tcp 1040 ------- 0 2.0 0.0 84 155
- 1.156064 2 0 tcp 1040 ------- 0 2.0 0.0 84 155
r 1.15608 2 0 tcp 1040 ------- 0 2.0 0.0 71 135
+ 1.15608 0 2 ack 40 ------- 0 0.0 2.0 71 156
- 1.15608 0 2 ack 40 ------- 0 0.0 2.0 71 156
r 1.156896 0 2 ack 40 ------- 0 0.0 2.0 65 138
+ 1.156896 2 0 tcp 1040 ------- 0 2.0 0.0 85 157
- 1.156896 2 0 tcp 1040 ------- 0 2.0 0.0 85 157
r 1.156912 2 0 tcp 1040 ------- 0 2.0 0.0 72 137
+ 1.156912 0 2 ack 40 ------- 0 0.0 2.0 72 158
- 1.156912 0 2 ack 40 ------- 0 0.0 2.0 72 158
r 1.157728 0 2 ack 40 ------- 0 0.0 2.0 66 140
+ 1.157728 2 0 tcp 1040 ------- 0 2.0 0.0 86 159
- 1.157728 2 0 tcp 1040 ------- 0 2.0 0.0 86 159
r 1.157744 2 0 tcp 1040 ------- 0 2.0 0.0 73 139
+ 1.157744 0 2 ack 40 ------- 0 0.0 2.0 73 160
- 1.157744 0 2 ack 40 ------- 0 0.0 2.0 73 160
r 1.15856 0 2 ack 40 ------- 0 0.0 2.0 67 142
+ 1.15856 2 0 tcp 1040 ------- 0 2.0 0.0 87 161
- 1.15856 2 0 tcp 1040 ------- 0 2.0 0.0 87 161
r 1.158576 2 0 tcp 1040 ------- 0 2.0 0.0 74 141
+ 1.158576 0 2 ack 40 ------- 0 0.0 2.0 74 162
- 1.158576 0 2 ack 40 ------- 0 0.0 2.0 74 162
r 1.159392 0 2 ack 40 ------- 0 0.0 2.0 68 144
+ 1.159392 2 0 tcp 1040 ------- 0 2.0 0.0 88 163
- 1.159392 2 0 tcp 1040 ------- 0 2.0 0.0 88 163
r 1.159408 2 0 tcp 1040 ------- 0 2.0 0.0 75 143
+ 1.159408 0 2 ack 40 ------- 0 0.0 2.0 75 164
- 1.159408 0 2 ack 40 ------- 0 0.0 2.0 75 164
r 1.160224 0 2 ack 40 ------- 0 0.0 2.0 69 146
+ 1.160224 2 0 tcp 1040 ------- 0 2.0 0.0 89 165
- 1.160224 2 0 tcp 1040 ------- 0 2.0 0.0 89 165
r 1.16024 2 0 tcp 1040 ------- 0 2.0 0.0 76 145
+ 1.16024 0 2 ack 40 ------- 0 0.0 2.0 76 166
- 1.16024 0 2 ack 40 ------- 0 0.0 2.0 76 166
r 1.161056 0 2 ack 40 ------- 0 0.0 2.0 70 148
+ 1.161056 2 0 tcp 1040 ------- 0 2.0 0.0 90 167
- 1.161056 2 0 tcp 1040 ------- 0 2.0 0.0 90 167
r 1.161072 2 0 tcp 1040 ------- 0 2.0 0.0 77 147
+ 1.161072 0 2 ack 40 ------- 0 0.0 2.0 77 168
- 1.161072 0 2 ack 40 ------- 0 0.0 2.0 77 168
r 1.161904 2 0 tcp 1040 ------- 0 2.0 0.0 78 149
+ 1.161904 0 2 ack 40 ------- 0 0.0 2.0 78 169
- 1.161904 0 2 ack 40 ------- 0 0.0 2.0 78 169
r 1.162736 2 0 tcp 1040 ------- 0 2.0 0.0 79 150
+ 1.162736 0 2 ack 40 ------- 0 0.0 2.0 79 170
- 1.162736 0 2 ack 40 ------- 0 0.0 2.0 79 170
r 1.163568 2 0 tcp 1040 ------- 0 2.0 0.0 80 151
+ 1.163568 0 2 ack 40 ------- 0 0.0 2.0 80 171
- 1.163568 0 2 ack 40 ------- 0 0.0 2.0 80 171
r 1.1644 2 0 tcp 1040 ------- 0 2.0 0.0 81 152
+ 1.1644 0 2 ack 40 ------- 0 0.0 2.0 81 172
- 1.1644 0 2 ack 40 ------- 0 0.0 2.0 81 172
r 1.165232 2 0 tcp 1040 ------- 0 2.0 0.0 82 153
+ 1.165232 0 2 ack 40 ------- 0 0.0 2.0 82 173
- 1.165232 0 2 ack 40 ------- 0 0.0 2.0 82 173
r 1.166064 2 0 tcp 1040 ------- 0 2.0 0.0 83 154
+ 1.166064 0 2 ack 40 ------- 0 0.0 2.0 83 174
- 1.166064 0 2 ack 40 ------- 0 0.0 2.0 83 174
r 1.166112 0 2 ack 40 ------- 0 0.0 2.0 71 156
+ 1.166112 2 0 tcp 1040 ------- 0 2.0 0.0 91 175
- 1.166112 2 0 tcp 1040 ------- 0 2.0 0.0 91 175
r 1.166896 2 0 tcp 1040 ------- 0 2.0 0.0 84 155
+ 1.166896 0 2 ack 40 ------- 0 0.0 2.0 84 176
- 1.166896 0 2 ack 40 ------- 0 0.0 2.0 84 176
r 1.166944 0 2 ack 40 ------- 0 0.0 2.0 72 158
+ 1.166944 2 0 tcp 1040 ------- 0 2.0 0.0 92 177
- 1.166944 2 0 tcp 1040 ------- 0 2.0 0.0 92 177
r 1.167728 2 0 tcp 1040 ------- 0 2.0 0.0 85 157
+ 1.167728 0 2 ack 40 ------- 0 0.0 2.0 85 178
- 1.167728 0 2 ack 40 ------- 0 0.0 2.0 85 178
r 1.167776 0 2 ack 40 ------- 0 0.0 2.0 73 160
+ 1.167776 2 0 tcp 1040 ------- 0 2.0 0.0 93 179
- 1.167776 2 0 tcp 1040 ------- 0 2.0 0.0 93 179
r 1.16856 2 0 tcp 1040 ------- 0 2.0 0.0 86 159
+ 1.16856 0 2 ack 40 ------- 0 0.0 2.0 86 180
- 1.16856 0 2 ack 40 ------- 0 0.0 2.0 86 180
r 1.168608 0 2 ack 40 ------- 0 0.0 2.0 74 162
+ 1.168608 2 0 tcp 1040 ------- 0 2.0 0.0 94 181
- 1.168608 2 0 tcp 1040 ------- 0 2.0 0.0 94 181
r 1.169392 2 0 tcp 1040 ------- 0 2.0 0.0 87 161
+ 1.169392 0 2 ack 40 ------- 0 0.0 2.0 87 182
- 1.169392 0 2 ack 40 ------- 0 0.0 2.0 87 182
r 1.16944 0 2 ack 40 ------- 0 0.0 2.0 75 164
+ 1.16944 2 0 tcp 1040 ------- 0 2.0 0.0 95 183
- 1.16944 2 0 tcp 1040 ------- 0 2.0 0.0 95 183
r 1.170224 2 0 tcp 1040 ------- 0 2.0 0.0 88 163
+ 1.170224 0 2 ack 40 ------- 0 0.0 2.0 88 184
- 1.170224 0 2 ack 40 ------- 0 0.0 2.0 88 184
r 1.170272 0 2 ack 40 ------- 0 0.0 2.0 76 166
+ 1.170272 2 0 tcp 1040 ------- 0 2.0 0.0 96 185
- 1.170272 2 0 tcp 1040 ------- 0 2.0 0.0 96 185
r 1.171056 2 0 tcp 1040 ------- 0 2.0 0.0 89 165
+ 1.171056 0 2 ack 40 ------- 0 0.0 2.0 89 186
- 1.171056 0 2 ack 40 ------- 0 0.0 2.0 89 186
r 1.171104 0 2 ack 40 ------- 0 0.0 2.0 77 168
+ 1.171104 2 0 tcp 1040 ------- 0 2.0 0.0 97 187
- 1.171104 2 0 tcp 1040 ------- 0 2.0 0.0 97 187
r 1.171888 2 0 tcp 1040 ------- 0 2.0 0.0 90 167
+ 1.171888 0 2 ack 40 ------- 0 0.0 2.0 90 188
- 1.171888 0 2 ack 40 ------- 0 0.0 2.0 90 188
r 1.171936 0 2 ack 40 ------- 0 0.0 2.0 78 169
+ 1.171936 2 0 tcp 1040 ------- 0 2.0 0.0 98 189
- 1.171936 2 0 tcp 1040 ------- 0 2.0 0.0 98 189
r 1.172768 0 2 ack 40 ------- 0 0.0 2.0 79 170
+ 1.172768 2 0 tcp 1040 ------- 0 2.0 0.0 99 190
- 1.172768 2 0 tcp 1040 ------- 0 2.0 0.0 99 190
r 1.1736 0 2 ack 40 ------- 0 0.0 2.0 80 171
+ 1.1736 2 0 tcp 1040 ------- 0 2.0 0.0 100 191
- 1.1736 2 0 tcp 1040 ------- 0 2.0 0.0 100 191
r 1.174432 0 2 ack 40 ------- 0 0.0 2.0 81 172
+ 1.174432 2 0 tcp 1040 ------- 0 2.0 0.0 101 192
- 1.174432 2 0 tcp 1040 ------- 0 2.0 0.0 101 192
r 1.175264 0 2 ack 40 ------- 0 0.0 2.0 82 173
+ 1.175264 2 0 tcp 1040 ------- 0 2.0 0.0 102 193
- 1.175264 2 0 tcp 1040 ------- 0 2.0 0.0 102 193
r 1.176096 0 2 ack 40 ------- 0 0.0 2.0 83 174
+ 1.176096 2 0 tcp 1040 ------- 0 2.0 0.0 103 194
- 1.176096 2 0 tcp 1040 ------- 0 2.0 0.0 103 194
r 1.176928 0 2 ack 40 ------- 0 0.0 2.0 84 176
+ 1.176928 2 0 tcp 1040 ------- 0 2.0 0.0 104 195
- 1.176928 2 0 tcp 1040 ------- 0 2.0 0.0 104 195
r 1.176944 2 0 tcp 1040 ------- 0 2.0 0.0 91 175
+ 1.176944 0 2 ack 40 ------- 0 0.0 2.0 91 196
- 1.176944 0 2 ack 40 ------- 0 0.0 2.0 91 196
r 1.17776 0 2 ack 40 ------- 0 0.0 2.0 85 178
+ 1.17776 2 0 tcp 1040 ------- 0 2.0 0.0 105 197
- 1.17776 2 0 tcp 1040 ------- 0 2.0 0.0 105 197
r 1.177776 2 0 tcp 1040 ------- 0 2.0 0.0 92 177
+ 1.177776 0 2 ack 40 ------- 0 0.0 2.0 92 198
- 1.177776 0 2 ack 40 ------- 0 0.0 2.0 92 198
r 1.178592 0 2 ack 40 ------- 0 0.0 2.0 86 180
+ 1.178592 2 0 tcp 1040 ------- 0 2.0 0.0 106 199
- 1.178592 2 0 tcp 1040 ------- 0 2.0 0.0 106 199
r 1.178608 2 0 tcp 1040 ------- 0 2.0 0.0 93 179
+ 1.178608 0 2 ack 40 ------- 0 0.0 2.0 93 200
- 1.178608 0 2 ack 40 ------- 0 0.0 2.0 93 200
r 1.179424 0 2 ack 40 ------- 0 0.0 2.0 87 182
+ 1.179424 2 0 tcp 1040 ------- 0 2.0 0.0 107 201
- 1.179424 2 0 tcp 1040 ------- 0 2.0 0.0 107 201
r 1.17944 2 0 tcp 1040 ------- 0 2.0 0.0 94 181
+ 1.17944 0 2 ack 40 ------- 0 0.0 2.0 94 202
- 1.17944 0 2 ack 40 ------- 0 0.0 2.0 94 202
r 1.180256 0 2 ack 40 ------- 0 0.0 2.0 88 184
+ 1.180256 2 0 tcp 1040 ------- 0 2.0 0.0 108 203
- 1.180256 2 0 tcp 1040 ------- 0 2.0 0.0 108 203
r 1.180272 2 0 tcp 1040 ------- 0 2.0 0.0 95 183
+ 1.180272 0 2 ack 40 ------- 0 0.0 2.0 95 204
- 1.180272 0 2 ack 40 ------- 0 0.0 2.0 95 204
r 1.181088 0 2 ack 40 ------- 0 0.0 2.0 89 186
+ 1.181088 2 0 tcp 1040 ------- 0 2.0 0.0 109 205
- 1.181088 2 0 tcp 1040 ------- 0 2.0 0.0 109 205
r 1.181104 2 0 tcp 1040 ------- 0 2.0 0.0 96 185
+ 1.181104 0 2 ack 40 ------- 0 0.0 2.0 96 206
- 1.181104 0 2 ack 40 ------- 0 0.0 2.0 96 206
r 1.18192 0 2 ack 40 ------- 0 0.0 2.0 90 188
+ 1.18192 2 0 tcp 1040 ------- 0 2.0 0.0 110 207
- 1.18192 2 0 tcp 1040 ------- 0 2.0 0.0 110 207
r 1.181936 2 0 tcp 1040 ------- 0 2.0 0.0 97 187
+ 1.181936 0 2 ack 40 ------- 0 0.0 2.0 97 208
- 1.181936 0 2 ack 40 ------- 0 0.0 2.0 97 208
r 1.182768 2 0 tcp 1040 ------- 0 2.0 0.0 98 189
+ 1.182768 0 2 ack 40 ------- 0 0.0 2.0 98 209
- 1.182768 0 2 ack 40 ------- 0 0.0 2.0 98 209
r 1.1836 2 0 tcp 1040 ------- 0 2.0 0.0 99 190
+ 1.1836 0 2 ack 40 ------- 0 0.0 2.0 99 210
- 1.1836 0 2 ack 40 ------- 0 0.0 2.0 99 210
r 1.184432 2 0 tcp 1040 ------- 0 2.0 0.0 100 191
+ 1.184432 0 2 ack 40 ------- 0 0.0 2.0 100 211
- 1.184432 0 2 ack 40 ------- 0 0.0 2.0 100 211
r 1.185264 2 0 tcp 1040 ------- 0 2.0 0.0 101 192
+ 1.185264 0 2 ack 40 ------- 0 0.0 2.0 101 212
- 1.185264 0 2 ack 40 ------- 0 0.0 2.0 101 212
r 1.186096 2 0 tcp 1040 ------- 0 2.0 0.0 102 193
+ 1.186096 0 2 ack 40 ------- 0 0.0 2.0 102 213
- 1.186096 0 2 ack 40 ------- 0 0.0 2.0 102 213
r 1.186928 2 0 tcp 1040 ------- 0 2.0 0.0 103 194
+ 1.186928 0 2 ack 40 ------- 0 0.0 2.0 103 214
- 1.186928 0 2 ack 40 ------- 0 0.0 2.0 103 214
r 1.186976 0 2 ack 40 ------- 0 0.0 2.0 91 196
+ 1.186976 2 0 tcp 1040 ------- 0 2.0 0.0 111 215
- 1.186976 2 0 tcp 1040 ------- 0 2.0 0.0 111 215
r 1.18776 2 0 tcp 1040 ------- 0 2.0 0.0 104 195
+ 1.18776 0 2 ack 40 ------- 0 0.0 2.0 104 216
- 1.18776 0 2 ack 40 ------- 0 0.0 2.0 104 216
r 1.187808 0 2 ack 40 ------- 0 0.0 2.0 92 198
+ 1.187808 2 0 tcp 1040 ------- 0 2.0 0.0 112 217
- 1.187808 2 0 tcp 1040 ------- 0 2.0 0.0 112 217
r 1.188592 2 0 tcp 1040 ------- 0 2.0 0.0 105 197