V -t * -v 1.0a5 -a 0
A -t * -n 1 -p 0 -o 0x7fffffff -c 30 -a 1
A -t * -h 1 -m 1073741823 -s 0
n -t * -a 4 -s 4 -S UP -v circle -c black -i black
n -t * -a 0 -s 0 -S UP -v circle -c black -i black
n -t * -a 1 -s 1 -S UP -v circle -c black -i black
n -t * -a 2 -s 2 -S UP -v circle -c black -i black
n -t * -a 3 -s 3 -S UP -v circle -c black -i black
l -t * -s 2 -d 0 -S UP -r 10000000 -D 0.01 -c black
l -t * -s 3 -d 0 -S UP -r 10000000 -D 0.01 -c black
l -t * -s 4 -d 0 -S UP -r 10000000 -D 0.01 -c black
l -t * -s 0 -d 1 -S UP -r 7000 -D 0.02 -c black
+ -t 1 -s 2 -d 0 -p tcp -e 40 -c 0 -i 0 -a 0 -x {2.0 0.0 0 ------- null}
- -t 1 -s 2 -d 0 -p tcp -e 40 -c 0 -i 0 -a 0 -x {2.0 0.0 0 ------- null}
h -t 1 -s 2 -d 0 -p tcp -e 40 -c 0 -i 0 -a 0 -x {2.0 0.0 -1 ------- null}
r -t 1.010032 -s 2 -d 0 -p tcp -e 40 -c 0 -i 0 -a 0 -x {2.0 0.0 0 ------- null}
+ -t 1.010032 -s 0 -d 2 -p ack -e 40 -c 0 -i 1 -a 0 -x {0.0 2.0 0 ------- null}
- -t 1.010032 -s 0 -d 2 -p ack -e 40 -c 0 -i 1 -a 0 -x {0.0 2.0 0 ------- null}
h -t 1.010032 -s 0 -d 2 -p ack -e 40 -c 0 -i 1 -a 0 -x {0.0 2.0 -1 ------- null}
r -t 1.020064 -s 0 -d 2 -p ack -e 40 -c 0 -i 1 -a 0 -x {0.0 2.0 0 ------- null}
+ -t 1.020064 -s 2 -d 0 -p tcp -e 1040 -c 0 -i 2 -a 0 -x {2.0 0.0 1 ------- null}
- -t 1.020064 -s 2 -d 0 -p tcp -e 1040 -c 0 -i 2 -a 0 -x {2.0 0.0 1 ------- null}
h -t 1.020064 -s 2 -d 0 -p tcp -e 1040 -c 0 -i 2 -a 0 -x {2.0 0.0 -1 ------- null}
+ -t 1.020064 -s 2 -d 0 -p tcp -e 1040 -c 0 -i 3 -a 0 -x {2.0 0.0 2 ------- null}
- -t 1.020896 -s 2 -d 0 -p tcp -e 1040 -c 0 -i 3 -a 0 -x {2.0 0.0 2 ------- null}
h -t 1.020896 -s 2 -d 0 -p tcp -e 1040 -c 0 -i 3 -a 0 -x {2.0 0.0 -1 ------- null}
r -t 1.030896 -s 2 -d 0 -p tcp -e 1040 -c 0 -i 2 -a 0 -x {2.0 0.0 1 ------- null}
+ -t 1.030896 -s 0 -d 2 -p ack -e 40 -c 0 -i 4 -a 0 -x {0.0 2.0 1 ------- null}
- -t 1.030896 -s 0 -d 2 -p ack -e 40 -c 0 -i 4 -a 0 -x {0.0 2.0 1 ------- null}
h -t 1.030896 -s 0 -d 2 -p ack -e 40 -c 0 -i 4 -a 0 -x {0.0 2.0 -1 ------- null}
r -t 1.031728 -s 2 -d 0 -p tcp -e 1040 -c 0 -i 3 -a 0 -x {2.0 0.0 2 ------- null}
+ -t 1.031728 -s 0 -d 2 -p ack -e 40 -c 0 -i 5 -a 0 -x {0.0 2.0 2 ------- null}
- -t 1.031728 -s 0 -d 2 -p ack -e 40 -c 0 -i 5 -a 0 -x {0.0 2.0 2 ------- null}
h -t 1.031728 -s 0 -d 2 -p ack -e 40 -c 0 -i 5 -a 0 -x {0.0 2.0 -1 ------- null}
r -t 1.040928 -s 0 -d 2 -p ack -e 40 -c 0 -i 4 -a 0 -x {0.0 2.0 1 ------- null}
+ -t 1.040928 -s 2 -d 0 -p tcp -e 1040 -c 0 -i 6 -a 0 -x {2.0 0.0 3 ------- null}
- -t 1.040928 -s 2 -d 0 -p tcp -e 1040 -c 0 -i 6 -a 0 -x {2.0 0.0 3 ------- null}
h -t 1.040928 -s 2 -d 0 -p tcp -e 1040 -c 0 -i 6 -a 0 -x {2.0 0.0 -1 ------- null}
+ -t 1.040928 -s 2 -d 0 -p tcp -e 1040 -c 0 -i 7 -a 0 -x {2.0 0.0 4 ------- null}
r -t 1.04176 -s 0 -d 2 -p ack -e 40 -c 0 -i 5 -a 0 -x {0.0 2.0 2 ------- null}
+ -t 1.04176 -s 2 -d 0 -p tcp -e 1040 -c 0 -i 8 -a 0 -x {2.0 0.0 5 ------- null}
+ -t 1.04176 -s 2 -d 0 -p tcp -e 1040 -c 0 -i 9 -a 0 -x {2.0 0.0 6 ------- null}
- -t 1.04176 -s 2 -d 0 -p tcp -e 1040 -c 0 -i 7 -a 0 -x {2.0 0.0 4 ------- null}
h -t 1.04176 -s 2 -d 0 -p tcp -e 1040 -c 0 -i 7 -a 0 -x {2.0 0.0 -1 ------- null}
- -t 1.042592 -s 2 -d 0 -p tcp -e 1040 -c 0 -i 8 -a 0 -x {2.0 0.0 5 ------- null}
h -t 1.042592 -s 2 -d 0 -p tcp -e 1040 -c 0 -i 8 -a 0 -x {2.0 0.0 -1 ------- null}
- -t 1.043424 -s 2 -d 0 -p tcp -e 1040 -c 0 -i 9 -a 0 -x {2.0 0.0 6 ------- null}
h -t 1.043424 -s 2 -d 0 -p tcp -e 1040 -c 0 -i 9 -a 0 -x {2.0 0.0 -1 ------- null}
r -t 1.05176 -s 2 -d 0 -p tcp -e 1040 -c 0 -i 6 -a 0 -x {2.0 0.0 3 ------- null}
+ -t 1.05176 -s 0 -d 2 -p ack -e 40 -c 0 -i 10 -a 0 -x {0.0 2.0 3 ------- null}
- -t 1.05176 -s 0 -d 2 -p ack -e 40 -c 0 -i 10 -a 0 -x {0.0 2.0 3 ------- null}
h -t 1.05176 -s 0 -d 2 -p ack -e 40 -c 0 -i 10 -a 0 -x {0.0 2.0 -1 ------- null}
r -t 1.052592 -s 2 -d 0 -p tcp -e 1040 -c 0 -i 7 -a 0 -x {2.0 0.0 4 ------- null}
+ -t 1.052592 -s 0 -d 2 -p ack -e 40 -c 0 -i 11 -a 0 -x {0.0 2.0 4 ------- null}
- -t 1.052592 -s 0 -d 2 -p ack -e 40 -c 0 -i 11 -a 0 -x {0.0 2.0 4 ------- null}
h -t 1.052592 -s 0 -d 2 -p ack -e 40 -c 0 -i 11 -a 0 -x {0.0 2.0 -1 ------- null}
r -t 1.053424 -s 2 -d 0 -p tcp -e 1040 -c 0 -i 8 -a 0 -x {2.0 0.0 5 ------- null}
+ -t 1.053424 -s 0 -d 2 -p ack -e 40 -c 0 -i 12 -a 0 -x {0.0 2.0 5 ------- null}
- -t 1.053424 -s 0 -d 2 -p ack -e 40 -c 0 -i 12 -a 0 -x {0.0 2.0 5 ------- null}
h -t 1.053424 -s 0 -d 2 -p ack -e 40 -c 0 -i 12 -a 0 -x {0.0 2.0 -1 ------- null}
r -t 1.054256 -s 2 -d 0 -p tcp -e 1040 -c 0 -i 9 -a 0 -x {2.0 0.0 6 ------- null}
+ -t 1.054256 -s 0 -d 2 -p ack -e 40 -c 0 -i 13 -a 0 -x {0.0 2.0 6 ------- null}
- -t 1.054256 -s 0 -d 2 -p ack -e 40 -c 0 -i 13 -a 0 -x {0.0 2.0 6 ------- null}
h -t 1.054256 -s 0 -d 2 -p ack -e 40 -c 0 -i 13 -a 0 -x {0.0 2.0 -1 ------- null}
r -t 1.061792 -s 0 -d 2 -p ack -e 40 -c 0 -i 10 -a 0 -x {0.0 2.0 3 ------- null}
+ -t 1.061792 -s 2 -d 0 -p tcp -e 1040 -c 0 -i 14 -a 0 -x {2.0 0.0 7 ------- null}
- -t 1.061792 -s 2 -d 0 -p tcp -e 1040 -c 0 -i 14 -a 0 -x {2.0 0.0 7 ------- null}
h -t 1.061792 -s 2 -d 0 -p tcp -e 1040 -c 0 -i 14 -a 0 -x {2.0 0.0 -1 ------- null}
+ -t 1.061792 -s 2 -d 0 -p tcp -e 1040 -c 0 -i 15 -a 0 -x {2.0 0.0 8 ------- null}
r -t 1.062624 -s 0 -d 2 -p ack -e 40 -c 0 -i 11 -a 0 -x {0.0 2.0 4 ------- null}
+ -t 1.062624 -s 2 -d 0 -p tcp -e 1040 -c 0 -i 16 -a 0 -x {2.0 0.0 9 ------- null}
+ -t 1.062624 -s 2 -d 0 -p tcp -e 1040 -c 0 -i 17 -a 0 -x {2.0 0.0 10 ------- null}
- -t 1.062624 -s 2 -d 0 -p tcp -e 1040 -c 0 -i 15 -a 0 -x {2.0 0.0 8 ------- null}
h -t 1.062624 -s 2 -d 0 -p tcp -e 1040 -c 0 -i 15 -a 0 -x {2.0 0.0 -1 ------- null}
r -t 1.063456 -s 0 -d 2 -p ack -e 40 -c 0 -i 12 -a 0 -x {0.0 2.0 5 ------- null}
+ -t 1.063456 -s 2 -d 0 -p tcp -e 1040 -c 0 -i 18 -a 0 -x {2.0 0.0 11 ------- null}
+ -t 1.063456 -s 2 -d 0 -p tcp -e 1040 -c 0 -i 19 -a 0 -x {2.0 0.0 12 ------- null}
- -t 1.063456 -s 2 -d 0 -p tcp -e 1040 -c 0 -i 16 -a 0 -x {2.0 0.0 9 ------- null}
h -t 1.063456 -s 2 -d 0 -p tcp -e 1040 -c 0 -i 16 -a 0 -x {2.0 0.0 -1 ------- null}
r -t 1.064288 -s 0 -d 2 -p ack -e 40 -c 0 -i 13 -a 0 -x {0.0 2.0 6 ------- null}
+ -t 1.064288 -s 2 -d 0 -p tcp -e 1040 -c 0 -i 20 -a 0 -x {2.0 0.0 13 ------- null}
+ -t 1.064288 -s 2 -d 0 -p tcp -e 1040 -c 0 -i 21 -a 0 -x {2.0 0.0 14 ------- null}
- -t 1.064288 -s 2 -d 0 -p tcp -e 1040 -c 0 -i 17 -a 0 -x {2.0 0.0 10 ------- null}
h -t 1.064288 -s 2 -d 0 -p tcp -e 1040 -c 0 -i 17 -a 0 -x {2.0 0.0 -1 ------- null}
- -t 1.06512 -s 2 -d 0 -p tcp -e 1040 -c 0 -i 18 -a 0 -x {2.0 0.0 11 ------- null}
h -t 1.06512 -s 2 -d 0 -p tcp -e 1040 -c 0 -i 18 -a 0 -x {2.0 0.0 -1 ------- null}
- -t 1.065952 -s 2 -d 0 -p tcp -e 1040 -c 0 -i 19 -a 0 -x {2.0 0.0 12 ------- null}
h -t 1.065952 -s 2 -d 0 -p tcp -e 1040 -c 0 -i 19 -a 0 -x {2.0 0.0 -1 ------- null}
- -t 1.066784 -s 2 -d 0 -p tcp -e 1040 -c 0 -i 20 -a 0 -x {2.0 0.0 13 ------- null}
h -t 1.066784 -s 2 -d 0 -p tcp -e 1040 -c 0 -i 20 -a 0 -x {2.0 0.0 -1 ------- null}
- -t 1.067616 -s 2 -d 0 -p tcp -e 1040 -c 0 -i 21 -a 0 -x {2.0 0.0 14 ------- null}
h -t 1.067616 -s 2 -d 0 -p tcp -e 1040 -c 0 -i 21 -a 0 -x {2.0 0.0 -1 ------- null}
r -t 1.072624 -s 2 -d 0 -p tcp -e 1040 -c 0 -i 14 -a 0 -x {2.0 0.0 7 ------- null}
+ -t 1.072624 -s 0 -d 2 -p ack -e 40 -c 0 -i 22 -a 0 -x {0.0 2.0 7 ------- null}
- -t 1.072624 -s 0 -d 2 -p ack -e 40 -c 0 -i 22 -a 0 -x {0.0 2.0 7 ------- null}
h -t 1.072624 -s 0 -d 2 -p ack -e 40 -c 0 -i 22 -a 0 -x {0.0 2.0 -1 ------- null}
r -t 1.073456 -s 2 -d 0 -p tcp -e 1040 -c 0 -i 15 -a 0 -x {2.0 0.0 8 ------- null}
+ -t 1.073456 -s 0 -d 2 -p ack -e 40 -c 0 -i 23 -a 0 -x {0.0 2.0 8 ------- null}
- -t 1.073456 -s 0 -d 2 -p ack -e 40 -c 0 -i 23 -a 0 -x {0.0 2.0 8 ------- null}
h -t 1.073456 -s 0 -d 2 -p ack -e 40 -c 0 -i 23 -a 0 -x {0.0 2.0 -1 ------- null}
r -t 1.074288 -s 2 -d 0 -p tcp -e 1040 -c 0 -i 16 -a 0 -x {2.0 0.0 9 ------- null}
+ -t 1.074288 -s 0 -d 2 -p ack -e 40 -c 0 -i 24 -a 0 -x {0.0 2.0 9 ------- null}
- -t 1.074288 -s 0 -d 2 -p ack -e 40 -c 0 -i 24 -a 0 -x {0.0 2.0 9 ------- null}
h -t 1.074288 -s 0 -d 2 -p ack -e 40 -c 0 -i 24 -a 0 -x {0.0 2.0 -1 ------- null}
r -t 1.07512 -s 2 -d 0 -p tcp -e 1040 -c 0 -i 17 -a 0 -x {2.0 0.0 10 ------- null}
+ -t 1.07512 -s 0 -d 2 -p ack -e 40 -c 0 -i 25 -a 0 -x {0.0 2.0 10 ------- null}
- -t 1.07512 -s 0 -d 2 -p ack -e 40 -c 0 -i 25 -a 0 -x {0.0 2.0 10 ------- null}
h -t 1.07512 -s 0 -d 2 -p ack -e 40 -c 0 -i 25 -a 0 -x {0.0 2.0 -1 ------- null}
r -t 1.075952 -s 2 -d 0 -p tcp -e 1040 -c 0 -i 18 -a 0 -x {2.0 0.0 11 ------- null}
+ -t 1.075952 -s 0 -d 2 -p ack -e 40 -c 0 -i 26 -a 0 -x {0.0 2.0 11 ------- null}
- -t 1.075952 -s 0 -d 2 -p ack -e 40 -c 0 -i 26 -a 0 -x {0.0 2.0 11 ------- null}
h -t 1.075952 -s 0 -d 2 -p ack -e 40 -c 0 -i 26 -a 0 -x {0.0 2.0 -1 ------- null}
r -t 1.076784 -s 2 -d 0 -p tcp -e 1040 -c 0 -i 19 -a 0 -x {2.0 0.0 12 ------- null}
+ -t 1.076784 -s 0 -d 2 -p ack -e 40 -c 0 -i 27 -a 0 -x {0.0 2.0 12 ------- null}
- -t 1.076784 -s 0 -d 2 -p ack -e 40 -c 0 -i 27 -a 0 -x {0.0 2.0 12 ------- null}
h -t 1.076784 -s 0 -d 2 -p ack -e 40 -c 0 -i 27 -a 0 -x {0.0 2.0 -1 ------- null}
r -t 1.077616 -s 2 -d 0 -p tcp -e 1040 -c 0 -i 20 -a 0 -x {2.0 0.0 13 ------- null}
+ -t 1.077616 -s 0 -d 2 -p ack -e 40 -c 0 -i 28 -a 0 -x {0.0 2.0 13 ------- null}
- -t 1.077616 -s 0 -d 2 -p ack -e 40 -c 0 -i 28 -a 0 -x {0.0 2.0 13 ------- null}
h -t 1.077616 -s 0 -d 2 -p ack -e 40 -c 0 -i 28 -a 0 -x {0.0 2.0 -1 ------- null}
r -t 1.078448 -s 2 -d 0 -p tcp -e 1040 -c 0 -i 21 -a 0 -x {2.0 0.0 14 ------- null}
+ -t 1.078448 -s 0 -d 2 -p ack -e 40 -c 0 -i 29 -a 0 -x {0.0 2.0 14 ------- null}
- -t 1.078448 -s 0 -d 2 -p ack -e 40 -c 0 -i 29 -a 0 -x {0.0 2.0 14 ------- null}
h -t 1.078448 -s 0 -d 2 -p ack -e 40 -c 0 -i 29 -a 0 -x {0.0 2.0 -1 ------- null}
r -t 1.082656 -s 0 -d 2 -p ack -e 40 -c 0 -i 22 -a 0 -x {0.0 2.0 7 ------- null}
+ -t 1.082656 -s 2 -d 0 -p tcp -e 1040 -c 0 -i 30 -a 0 -x {2.0 0.0 15 ------- null}
- -t 1.082656 -s 2 -d 0 -p tcp -e 1040 -c 0 -i 30 -a 0 -x {2.0 0.0 15 ------- null}
h -t 1.082656 -s 2 -d 0 -p tcp -e 1040 -c 0 -i 30 -a 0 -x {2.0 0.0 -1 ------- null}
+ -t 1.082656 -s 2 -d 0 -p tcp -e 1040 -c 0 -i 31 -a 0 -x {2.0 0.0 16 ------- null}
r -t 1.083488 -s 0 -d 2 -p ack -e 40 -c 0 -i 23 -a 0 -x {0.0 2.0 8 ------- null}
+ -t 1.083488 -s 2 -d 0 -p tcp -e 1040 -c 0 -i 32 -a 0 -x {2.0 0.0 17 ------- null}
+ -t 1.083488 -s 2 -d 0 -p tcp -e 1040 -c 0 -i 33 -a 0 -x {2.0 0.0 18 ------- null}
- -t 1.083488 -s 2 -d 0 -p tcp -e 1040 -c 0 -i 31 -a 0 -x {2.0 0.0 16 ------- null}
h -t 1.083488 -s 2 -d 0 -p tcp -e 1040 -c 0 -i 31 -a 0 -x {2.0 0.0 -1 ------- null}
r -t 1.08432 -s 0 -d 2 -p ack -e 40 -c 0 -i 24 -a 0 -x {0.0 2.0 9 ------- null}
+ -t 1.08432 -s 2 -d 0 -p tcp -e 1040 -c 0 -i 34 -a 0 -x {2.0 0.0 19 ------- null}
+ -t 1.08432 -s 2 -d 0 -p tcp -e 1040 -c 0 -i 35 -a 0 -x {2.0 0.0 20 ------- null}
- -t 1.08432 -s 2 -d 0 -p tcp -e 1040 -c 0 -i 32 -a 0 -x {2.0 0.0 17 ------- null}
h -t 1.08432 -s 2 -d 0 -p tcp -e 1040 -c 0 -i 32 -a 0 -x {2.0 0.0 -1 ------- null}
r -t 1.085152 -s 0 -d 2 -p ack -e 40 -c 0 -i 25 -a 0 -x {0.0 2.0 10 ------- null}
+ -t 1.085152 -s 2 -d 0 -p tcp -e 1040 -c 0 -i 36 -a 0 -x {2.0 0.0 21 ------- null}
+ -t 1.085152 -s 2 -d 0 -p tcp -e 1040 -c 0 -i 37 -a 0 -x {2.0 0.0 22 ------- null}
- -t 1.085152 -s 2 -d 0 -p tcp -e 1040 -c 0 -i 33 -a 0 -x {2.0 0.0 18 ------- null}
h -t 1.085152 -s 2 -d 0 -p tcp -e 1040 -c 0 -i 33 -a 0 -x {2.0 0.0 -1 ------- null}
r -t 1.085984 -s 0 -d 2 -p ack -e 40 -c 0 -i 26 -a 0 -x {0.0 2.0 11 ------- null}
+ -t 1.085984 -s 2 -d 0 -p tcp -e 1040 -c 0 -i 38 -a 0 -x {2.0 0.0 23 ------- null}
+ -t 1.085984 -s 2 -d 0 -p tcp -e 1040 -c 0 -i 39 -a 0 -x {2.0 0.0 24 ------- null}
- -t 1.085984 -s 2 -d 0 -p tcp -e 1040 -c 0 -i 34 -a 0 -x {2.0 0.0 19 ------- null}
h -t 1.085984 -s 2 -d 0 -p tcp -e 1040 -c 0 -i 34 -a 0 -x {2.0 0.0 -1 ------- null}
r -t 1.086816 -s 0 -d 2 -p ack -e 40 -c 0 -i 27 -a 0 -x {0.0 2.0 12 ------- null}
+ -t 1.086816 -s 2 -d 0 -p tcp -e 1040 -c 0 -i 40 -a 0 -x {2.0 0.0 25 ------- null}
+ -t 1.086816 -s 2 -d 0 -p tcp -e 1040 -c 0 -i 41 -a 0 -x {2.0 0.0 26 ------- null}
- -t 1.086816 -s 2 -d 0 -p tcp -e 1040 -c 0 -i 35 -a 0 -x {2.0 0.0 20 ------- null}
h -t 1.086816 -s 2 -d 0 -p tcp -e 1040 -c 0 -i 35 -a 0 -x {2.0 0.0 -1 ------- null}
r -t 1.087648 -s 0 -d 2 -p ack -e 40 -c 0 -i 28 -a 0 -x {0.0 2.0 13 ------- null}
+ -t 1.087648 -s 2 -d 0 -p tcp -e 1040 -c 0 -i 42 -a 0 -x {2.0 0.0 27 ------- null}
+ -t 1.087648 -s 2 -d 0 -p tcp -e 1040 -c 0 -i 43 -a 0 -x {2.0 0.0 28 ------- null}
- -t 1.087648 -s 2 -d 0 -p tcp -e 1040 -c 0 -i 36 -a 0 -x {2.0 0.0 21 ------- null}
h -t 1.087648 -s 2 -d 0 -p tcp -e 1040 -c 0 -i 36 -a 0 -x {2.0 0.0 -1 ------- null}
r -t 1.08848 -s 0 -d 2 -p ack -e 40 -c 0 -i 29 -a 0 -x {0.0 2.0 14 ------- null}
+ -t 1.08848 -s 2 -d 0 -p tcp -e 1040 -c 0 -i 44 -a 0 -x {2.0 0.0 29 ------- null}
+ -t 1.08848 -s 2 -d 0 -p tcp -e 1040 -c 0 -i 45 -a 0 -x {2.0 0.0 30 ------- null}
- -t 1.08848 -s 2 -d 0 -p tcp -e 1040 -c 0 -i 37 -a 0 -x {2.0 0.0 22 ------- null}
h -t 1.08848 -s 2 -d 0 -p tcp -e 1040 -c 0 -i 37 -a 0 -x {2.0 0.0 -1 ------- null}
- -t 1.089312 -s 2 -d 0 -p tcp -e 1040 -c 0 -i 38 -a 0 -x {2.0 0.0 23 ------- null}
h -t 1.089312 -s 2 -d 0 -p tcp -e 1040 -c 0 -i 38 -a 0 -x {2.0 0.0 -1 ------- null}
- -t 1.090144 -s 2 -d 0 -p tcp -e 1040 -c 0 -i 39 -a 0 -x {2.0 0.0 24 ------- null}
h -t 1.090144 -s 2 -d 0 -p tcp -e 1040 -c 0 -i 39 -a 0 -x {2.0 0.0 -1 ------- null}
- -t 1.090976 -s 2 -d 0 -p tcp -e 1040 -c 0 -i 40 -a 0 -x {2.0 0.0 25 ------- null}
h -t 1.090976 -s 2 -d 0 -p tcp -e 1040 -c 0 -i 40 -a 0 -x {2.0 0.0 -1 ------- null}
- -t 1.091808 -s 2 -d 0 -p tcp -e 1040 -c 0 -i 41 -a 0 -x {2.0 0.0 26 ------- null}
h -t 1.091808 -s 2 -d 0 -p tcp -e 1040 -c 0 -i 41 -a 0 -x {2.0 0.0 -1 ------- null}
- -t 1.09264 -s 2 -d 0 -p tcp -e 1040 -c 0 -i 42 -a 0 -x {2.0 0.0 27 ------- null}
h -t 1.09264 -s 2 -d 0 -p tcp -e 1040 -c 0 -i 42 -a 0 -x {2.0 0.0 -1 ------- null}
- -t 1.093472 -s 2 -d 0 -p tcp -e 1040 -c 0 -i 43 -a 0 -x {2.0 0.0 28 ------- null}
h -t 1.093472 -s 2 -d 0 -p tcp -e 1040 -c 0 -i 43 -a 0 -x {2.0 0.0 -1 ------- null}
r -t 1.093488 -s 2 -d 0 -p tcp -e 1040 -c 0 -i 30 -a 0 -x {2.0 0.0 15 ------- null}
+ -t 1.093488 -s 0 -d 2 -p ack -e 40 -c 0 -i 46 -a 0 -x {0.0 2.0 15 ------- null}
- -t 1.093488 -s 0 -d 2 -p ack -e 40 -c 0 -i 46 -a 0 -x {0.0 2.0 15 ------- null}
h -t 1.093488 -s 0 -d 2 -p ack -e 40 -c 0 -i 46 -a 0 -x {0.0 2.0 -1 ------- null}
- -t 1.094304 -s 2 -d 0 -p tcp -e 1040 -c 0 -i 44 -a 0 -x {2.0 0.0 29 ------- null}
h -t 1.094304 -s 2 -d 0 -p tcp -e 1040 -c 0 -i 44 -a 0 -x {2.0 0.0 -1 ------- null}
r -t 1.09432 -s 2 -d 0 -p tcp -e 1040 -c 0 -i 31 -a 0 -x {2.0 0.0 16 ------- null}
+ -t 1.09432 -s 0 -d 2 -p ack -e 40 -c 0 -i 47 -a 0 -x {0.0 2.0 16 ------- null}
- -t 1.09432 -s 0 -d 2 -p ack -e 40 -c 0 -i 47 -a 0 -x {0.0 2.0 16 ------- null}
h -t 1.09432 -s 0 -d 2 -p ack -e 40 -c 0 -i 47 -a 0 -x {0.0 2.0 -1 ------- null}
- -t 1.095136 -s 2 -d 0 -p tcp -e 1040 -c 0 -i 45 -a 0 -x {2.0 0.0 30 ------- null}
h -t 1.095136 -s 2 -d 0 -p tcp -e 1040 -c 0 -i 45 -a 0 -x {2.0 0.0 -1 ------- null}
r -t 1.095152 -s 2 -d 0 -p tcp -e 1040 -c 0 -i 32 -a 0 -x {2.0 0.0 17 ------- null}
+ -t 1.095152 -s 0 -d 2 -p ack -e 40 -c 0 -i 48 -a 0 -x {0.0 2.0 17 ------- null}
- -t 1.095152 -s 0 -d 2 -p ack -e 40 -c 0 -i 48 -a 0 -x {0.0 2.0 17 ------- null}
h -t 1.095152 -s 0 -d 2 -p ack -e 40 -c 0 -i 48 -a 0 -x {0.0 2.0 -1 ------- null}
r -t 1.095984 -s 2 -d 0 -p tcp -e 1040 -c 0 -i 33 -a 0 -x {2.0 0.0 18 ------- null}
+ -t 1.095984 -s 0 -d 2 -p ack -e 40 -c 0 -i 49 -a 0 -x {0.0 2.0 18 ------- null}
- -t 1.095984 -s 0 -d 2 -p ack -e 40 -c 0 -i 49 -a 0 -x {0.0 2.0 18 ------- null}
h -t 1.095984 -s 0 -d 2 -p ack -e 40 -c 0 -i 49 -a 0 -x {0.0 2.0 -1 ------- null}
r -t 1.096816 -s 2 -d 0 -p tcp -e 1040 -c 0 -i 34 -a 0 -x {2.0 0.0 19 ------- null}
+ -t 1.096816 -s 0 -d 2 -p ack -e 40 -c 0 -i 50 -a 0 -x {0.0 2.0 19 ------- null}
- -t 1.096816 -s 0 -d 2 -p ack -e 40 -c 0 -i 50 -a 0 -x {0.0 2.0 19 ------- null}
h -t 1.096816 -s 0 -d 2 -p ack -e 40 -c 0 -i 50 -a 0 -x {0.0 2.0 -1 ------- null}
r -t 1.097648 -s 2 -d 0 -p tcp -e 1040 -c 0 -i 35 -a 0 -x {2.0 0.0 20 ------- null}
+ -t 1.097648 -s 0 -d 2 -p ack -e 40 -c 0 -i 51 -a 0 -x {0.0 2.0 20 ------- null}
- -t 1.097648 -s 0 -d 2 -p ack -e 40 -c 0 -i 51 -a 0 -x {0.0 2.0 20 ------- null}
h -t 1.097648 -s 0 -d 2 -p ack -e 40 -c 0 -i 51 -a 0 -x {0.0 2.0 -1 ------- null}
r -t 1.09848 -s 2 -d 0 -p tcp -e 1040 -c 0 -i 36 -a 0 -x {2.0 0.0 21 ------- null}
+ -t 1.09848 -s 0 -d 2 -p ack -e 40 -c 0 -i 52 -a 0 -x {0.0 2.0 21 ------- null}
- -t 1.09848 -s 0 -d 2 -p ack -e 40 -c 0 -i 52 -a 0 -x {0.0 2.0 21 ------- null}
h -t 1.09848 -s 0 -d 2 -p ack -e 40 -c 0 -i 52 -a 0 -x {0.0 2.0 -1 ------- null}
r -t 1.099312 -s 2 -d 0 -p tcp -e 1040 -c 0 -i 37 -a 0 -x {2.0 0.0 22 ------- null}
+ -t 1.099312 -s 0 -d 2 -p ack -e 40 -c 0 -i 53 -a 0 -x {0.0 2.0 22 ------- null}
- -t 1.099312 -s 0 -d 2 -p ack -e 40 -c 0 -i 53 -a 0 -x {0.0 2.0 22 ------- null}
h -t 1.099312 -s 0 -d 2 -p ack -e 40 -c 0 -i 53 -a 0 -x {0.0 2.0 -1 ------- null}
r -t 1.100144 -s 2 -d 0 -p tcp -e 1040 -c 0 -i 38 -a 0 -x {2.0 0.0 23 ------- null}
+ -t 1.100144 -s 0 -d 2 -p ack -e 40 -c 0 -i 54 -a 0 -x {0.0 2.0 23 ------- null}
- -t 1.100144 -s 0 -d 2 -p ack -e 40 -c 0 -i 54 -a 0 -x {0.0 2.0 23 ------- null}
h -t 1.100144 -s 0 -d 2 -p ack -e 40 -c 0 -i 54 -a 0 -x {0.0 2.0 -1 ------- null}
r -t 1.100976 -s 2 -d 0 -p tcp -e 1040 -c 0 -i 39 -a 0 -x {2.0 0.0 24 ------- null}
+ -t 1.100976 -s 0 -d 2 -p ack -e 40 -c 0 -i 55 -a 0 -x {0.0 2.0 24 ------- null}
- -t 1.100976 -s 0 -d 2 -p ack -e 40 -c 0 -i 55 -a 0 -x {0.0 2.0 24 ------- null}
h -t 1.100976 -s 0 -d 2 -p ack -e 40 -c 0 -i 55 -a 0 -x {0.0 2.0 -1 ------- null}
r -t 1.101808 -s 2 -d 0 -p tcp -e 1040 -c 0 -i 40 -a 0 -x {2.0 0.0 25 ------- null}
+ -t 1.101808 -s 0 -d 2 -p ack -e 40 -c 0 -i 56 -a 0 -x {0.0 2.0 25 ------- null}
- -t 1.101808 -s 0 -d 2 -p ack -e 40 -c 0 -i 56 -a 0 -x {0.0 2.0 25 ------- null}
h -t 1.101808 -s 0 -d 2 -p ack -e 40 -c 0 -i 56 -a 0 -x {0.0 2.0 -1 ------- null}
r -t 1.10264 -s 2 -d 0 -p tcp -e 1040 -c 0 -i 41 -a 0 -x {2.0 0.0 26 ------- null}
+ -t 1.10264 -s 0 -d 2 -p ack -e 40 -c 0 -i 57 -a 0 -x {0.0 2.0 26 ------- null}
- -t 1.10264 -s 0 -d 2 -p ack -e 40 -c 0 -i 57 -a 0 -x {0.0 2.0 26 ------- null}
h -t 1.10264 -s 0 -d 2 -p ack -e 40 -c 0 -i 57 -a 0 -x {0.0 2.0 -1 ------- null}
r -t 1.103472 -s 2 -d 0 -p tcp -e 1040 -c 0 -i 42 -a 0 -x {2.0 0.0 27 ------- null}
+ -t 1.103472 -s 0 -d 2 -p ack -e 40 -c 0 -i 58 -a 0 -x {0.0 2.0 27 ------- null}
- -t 1.103472 -s 0 -d 2 -p ack -e 40 -c 0 -i 58 -a 0 -x {0.0 2.0 27 ------- null}
h -t 1.103472 -s 0 -d 2 -p ack -e 40 -c 0 -i 58 -a 0 -x {0.0 2.0 -1 ------- null}
r -t 1.10352 -s 0 -d 2 -p ack -e 40 -c 0 -i 46 -a 0 -x {0.0 2.0 15 ------- null}
+ -t 1.10352 -s 2 -d 0 -p tcp -e 1040 -c 0 -i 59 -a 0 -x {2.0 0.0 31 ------- null}
- -t 1.10352 -s 2 -d 0 -p tcp -e 1040 -c 0 -i 59 -a 0 -x {2.0 0.0 31 ------- null}
h -t 1.10352 -s 2 -d 0 -p tcp -e 1040 -c 0 -i 59 -a 0 -x {2.0 0.0 -1 ------- null}
+ -t 1.10352 -s 2 -d 0 -p tcp -e 1040 -c 0 -i 60 -a 0 -x {2.0 0.0 32 ------- null}
r -t 1.104304 -s 2 -d 0 -p tcp -e 1040 -c 0 -i 43 -a 0 -x {2.0 0.0 28 ------- null}
+ -t 1.104304 -s 0 -d 2 -p ack -e 40 -c 0 -i 61 -a 0 -x {0.0 2.0 28 ------- null}
- -t 1.104304 -s 0 -d 2 -p ack -e 40 -c 0 -i 61 -a 0 -x {0.0 2.0 28 ------- null}
h -t 1.104304 -s 0 -d 2 -p ack -e 40 -c 0 -i 61 -a 0 -x {0.0 2.0 -1 ------- null}
r -t 1.104352 -s 0 -d 2 -p ack -e 40 -c 0 -i 47 -a 0 -x {0.0 2.0 16 ------- null}
+ -t 1.104352 -s 2 -d 0 -p tcp -e 1040 -c 0 -i 62 -a 0 -x {2.0 0.0 33 ------- null}
+ -t 1.104352 -s 2 -d 0 -p tcp -e 1040 -c 0 -i 63 -a 0 -x {2.0 0.0 34 ------- null}
- -t 1.104352 -s 2 -d 0 -p tcp -e 1040 -c 0 -i 60 -a 0 -x {2.0 0.0 32 ------- null}
h -t 1.104352 -s 2 -d 0 -p tcp -e 1040 -c 0 -i 60 -a 0 -x {2.0 0.0 -1 ------- null}
r -t 1.105136 -s 2 -d 0 -p tcp -e 1040 -c 0 -i 44 -a 0 -x {2.0 0.0 29 ------- null}
+ -t 1.105136 -s 0 -d 2 -p ack -e 40 -c 0 -i 64 -a 0 -x {0.0 2.0 29 ------- null}
- -t 1.105136 -s 0 -d 2 -p ack -e 40 -c 0 -i 64 -a 0 -x {0.0 2.0 29 ------- null}
h -t 1.105136 -s 0 -d 2 -p ack -e 40 -c 0 -i 64 -a 0 -x {0.0 2.0 -1 ------- null}
r -t 1.105184 -s 0 -d 2 -p ack -e 40 -c 0 -i 48 -a 0 -x {0.0 2.0 17 ------- null}
+ -t 1.105184 -s 2 -d 0 -p tcp -e 1040 -c 0 -i 65 -a 0 -x {2.0 0.0 35 ------- null}
+ -t 1.105184 -s 2 -d 0 -p tcp -e 1040 -c 0 -i 66 -a 0 -x {2.0 0.0 36 ------- null}
- -t 1.105184 -s 2 -d 0 -p tcp -e 1040 -c 0 -i 62 -a 0 -x {2.0 0.0 33 ------- null}
h -t 1.105184 -s 2 -d 0 -p tcp -e 1040 -c 0 -i 62 -a 0 -x {2.0 0.0 -1 ------- null}
r -t 1.105968 -s 2 -d 0 -p tcp -e 1040 -c 0 -i 45 -a 0 -x {2.0 0.0 30 ------- null}
+ -t 1.105968 -s 0 -d 2 -p ack -e 40 -c 0 -i 67 -a 0 -x {0.0 2.0 30 ------- null}
- -t 1.105968 -s 0 -d 2 -p ack -e 40 -c 0 -i 67 -a 0 -x {0.0 2.0 30 ------- null}
h -t 1.105968 -s 0 -d 2 -p ack -e 40 -c 0 -i 67 -a 0 -x {0.0 2.0 -1 ------- null}
r -t 1.106016 -s 0 -d 2 -p ack -e 40 -c 0 -i 49 -a 0 -x {0.0 2.0 18 ------- null}
+ -t 1.106016 -s 2 -d 0 -p tcp -e 1040 -c 0 -i 68 -a 0 -x {2.0 0.0 37 ------- null}
+ -t 1.106016 -s 2 -d 0 -p tcp -e 1040 -c 0 -i 69 -a 0 -x {2.0 0.0 38 ------- null}
- -t 1.106016 -s 2 -d 0 -p tcp -e 1040 -c 0 -i 63 -a 0 -x {2.0 0.0 34 ------- null}
h -t 1.106016 -s 2 -d 0 -p tcp -e 1040 -c 0 -i 63 -a 0 -x {2.0 0.0 -1 ------- null}
r -t 1.106848 -s 0 -d 2 -p ack -e 40 -c 0 -i 50 -a 0 -x {0.0 2.0 19 ------- null}
+ -t 1.106848 -s 2 -d 0 -p tcp -e 1040 -c 0 -i 70 -a 0 -x {2.0 0.0 39 ------- null}
- -t 1.106848 -s 2 -d 0 -p tcp -e 1040 -c 0 -i 65 -a 0 -x {2.0 0.0 35 ------- null}
h -t 1.106848 -s 2 -d 0 -p tcp -e 1040 -c 0 -i 65 -a 0 -x {2.0 0.0 -1 ------- null}
r -t 1.10768 -s 0 -d 2 -p ack -e 40 -c 0 -i 51 -a 0 -x {0.0 2.0 20 ------- null}
+ -t 1.10768 -s 2 -d 0 -p tcp -e 1040 -c 0 -i 71 -a 0 -x {2.0 0.0 40 ------- null}
- -t 1.10768 -s 2 -d 0 -p tcp -e 1040 -c 0 -i 66 -a 0 -x {2.0 0.0 36 ------- null}
h -t 1.10768 -s 2 -d 0 -p tcp -e 1040 -c 0 -i 66 -a 0 -x {2.0 0.0 -1 ------- null}
r -t 1.108512 -s 0 -d 2 -p ack -e 40 -c 0 -i 52 -a 0 -x {0.0 2.0 21 ------- null}
+ -t 1.108512 -s 2 -d 0 -p tcp -e 1040 -c 0 -i 72 -a 0 -x {2.0 0.0 41 ------- null}
- -t 1.108512 -s 2 -d 0 -p tcp -e 1040 -c 0 -i 68 -a 0 -x {2.0 0.0 37 ------- null}
h -t 1.108512 -s 2 -d 0 -p tcp -e 1040 -c 0 -i 68 -a 0 -x {2.0 0.0 -1 ------- null}
r -t 1.109344 -s 0 -d 2 -p ack -e 40 -c 0 -i 53 -a 0 -x {0.0 2.0 22 ------- null}
+ -t 1.109344 -s 2 -d 0 -p tcp -e 1040 -c 0 -i 73 -a 0 -x {2.0 0.0 42 ------- null}
- -t 1.109344 -s 2 -d 0 -p tcp -e 1040 -c 0 -i 69 -a 0 -x {2.0 0.0 38 ------- null}
h -t 1.109344 -s 2 -d 0 -p tcp -e 1040 -c 0 -i 69 -a 0 -x {2.0 0.0 -1 ------- null}
r -t 1.110176 -s 0 -d 2 -p ack -e 40 -c 0 -i 54 -a 0 -x {0.0 2.0 23 ------- null}
+ -t 1.110176 -s 2 -d 0 -p tcp -e 1040 -c 0 -i 74 -a 0 -x {2.0 0.0 43 ------- null}
- -t 1.110176 -s 2 -d 0 -p tcp -e 1040 -c 0 -i 70 -a 0 -x {2.0 0.0 39 ------- null}
h -t 1.110176 -s 2 -d 0 -p tcp -e 1040 -c 0 -i 70 -a 0 -x {2.0 0.0 -1 ------- null}
r -t 1.111008 -s 0 -d 2 -p ack -e 40 -c 0 -i 55 -a 0 -x {0.0 2.0 24 ------- null}
+ -t 1.111008 -s 2 -d 0 -p tcp -e 1040 -c 0 -i 75 -a 0 -x {2.0 0.0 44 ------- null}
- -t 1.111008 -s 2 -d 0 -p tcp -e 1040 -c 0 -i 71 -a 0 -x {2.0 0.0 40 ------- null}
h -t 1.111008 -s 2 -d 0 -p tcp -e 1040 -c 0 -i 71 -a 0 -x {2.0 0.0 -1 ------- null}
r -t 1.11184 -s 0 -d 2 -p ack -e 40 -c 0 -i 56 -a 0 -x {0.0 2.0 25 ------- null}
+ -t 1.11184 -s 2 -d 0 -p tcp -e 1040 -c 0 -i 76 -a 0 -x {2.0 0.0 45 ------- null}
- -t 1.11184 -s 2 -d 0 -p tcp -e 1040 -c 0 -i 72 -a 0 -x {2.0 0.0 41 ------- null}
h -t 1.11184 -s 2 -d 0 -p tcp -e 1040 -c 0 -i 72 -a 0 -x {2.0 0.0 -1 ------- null}
r -t 1.112672 -s 0 -d 2 -p ack -e 40 -c 0 -i 57 -a 0 -x {0.0 2.0 26 ------- null}
+ -t 1.112672 -s 2 -d 0 -p tcp -e 1040 -c 0 -i 77 -a 0 -x {2.0 0.0 46 ------- null}
- -t 1.112672 -s 2 -d 0 -p tcp -e 1040 -c 0 -i 73 -a 0 -x {2.0 0.0 42 ------- null}
h -t 1.112672 -s 2 -d 0 -p tcp -e 1040 -c 0 -i 73 -a 0 -x {2.0 0.0 -1 ------- null}
r -t 1.113504 -s 0 -d 2 -p ack -e 40 -c 0 -i 58 -a 0 -x {0.0 2.0 27 ------- null}
+ -t 1.113504 -s 2 -d 0 -p tcp -e 1040 -c 0 -i 78 -a 0 -x {2.0 0.0 47 ------- null}
- -t 1.113504 -s 2 -d 0 -p tcp -e 1040 -c 0 -i 74 -a 0 -x {2.0 0.0 43 ------- null}
h -t 1.113504 -s 2 -d 0 -p tcp -e 1040 -c 0 -i 74 -a 0 -x {2.0 0.0 -1 ------- null}
r -t 1.114336 -s 0 -d 2 -p ack -e 40 -c 0 -i 61 -a 0 -x {0.0 2.0 28 ------- null}
+ -t 1.114336 -s 2 -d 0 -p tcp -e 1040 -c 0 -i 79 -a 0 -x {2.0 0.0 48 ------- null}
- -t 1.114336 -s 2 -d 0 -p tcp -e 1040 -c 0 -i 75 -a 0 -x {2.0 0.0 44 ------- null}
h -t 1.114336 -s 2 -d 0 -p tcp -e 1040 -c 0 -i 75 -a 0 -x {2.0 0.0 -1 ------- null}
r -t 1.114352 -s 2 -d 0 -p tcp -e 1040 -c 0 -i 59 -a 0 -x {2.0 0.0 31 ------- null}
+ -t 1.114352 -s 0 -d 2 -p ack -e 40 -c 0 -i 80 -a 0 -x {0.0 2.0 31 ------- null}
- -t 1.114352 -s 0 -d 2 -p ack -e 40 -c 0 -i 80 -a 0 -x {0.0 2.0 31 ------- null}
h -t 1.114352 -s 0 -d 2 -p ack -e 40 -c 0 -i 80 -a 0 -x {0.0 2.0 -1 ------- null}
r -t 1.115168 -s 0 -d 2 -p ack -e 40 -c 0 -i 64 -a 0 -x {0.0 2.0 29 ------- null}
+ -t 1.115168 -s 2 -d 0 -p tcp -e 1040 -c 0 -i 81 -a 0 -x {2.0 0.0 49 ------- null}
- -t 1.115168 -s 2 -d 0 -p tcp -e 1040 -c 0 -i 76 -a 0 -x {2.0 0.0 45 ------- null}
h -t 1.115168 -s 2 -d 0 -p tcp -e 1040 -c 0 -i 76 -a 0 -x {2.0 0.0 -1 ------- null}
r -t 1.115184 -s 2 -d 0 -p tcp -e 1040 -c 0 -i 60 -a 0 -x {2.0 0.0 32 ------- null}
+ -t 1.115184 -s 0 -d 2 -p ack -e 40 -c 0 -i 82 -a 0 -x {0.0 2.0 32 ------- null}
- -t 1.115184 -s 0 -d 2 -p ack -e 40 -c 0 -i 82 -a 0 -x {0.0 2.0 32 ------- null}
h -t 1.115184 -s 0 -d 2 -p ack -e 40 -c 0 -i 82 -a 0 -x {0.0 2.0 -1 ------- null}
r -t 1.116 -s 0 -d 2 -p ack -e 40 -c 0 -i 67 -a 0 -x {0.0 2.0 30 ------- null}
+ -t 1.116 -s 2 -d 0 -p tcp -e 1040 -c 0 -i 83 -a 0 -x {2.0 0.0 50 ------- null}
- -t 1.116 -s 2 -d 0 -p tcp -e 1040 -c 0 -i 77 -a 0 -x {2.0 0.0 46 ------- null}
h -t 1.116 -s 2 -d 0 -p tcp -e 1040 -c 0 -i 77 -a 0 -x {2.0 0.0 -1 ------- null}
r -t 1.116016 -s 2 -d 0 -p tcp -e 1040 -c 0 -i 62 -a 0 -x {2.0 0.0 33 ------- null}
+ -t 1.116016 -s 0 -d 2 -p ack -e 40 -c 0 -i 84 -a 0 -x {0.0 2.0 33 ------- null}
- -t 1.116016 -s 0 -d 2 -p ack -e 40 -c 0 -i 84 -a 0 -x {0.0 2.0 33 ------- null}
h -t 1.116016 -s 0 -d 2 -p ack -e 40 -c 0 -i 84 -a 0 -x {0.0 2.0 -1 ------- null}
- -t 1.116832 -s 2 -d 0 -p tcp -e 1040 -c 0 -i 78 -a 0 -x {2.0 0.0 47 ------- null}
h -t 1.116832 -s 2 -d 0 -p tcp -e 1040 -c 0 -i 78 -a 0 -x {2.0 0.0 -1 ------- null}
r -t 1.116848 -s 2 -d 0 -p tcp -e 1040 -c 0 -i 63 -a 0 -x {2.0 0.0 34 ------- null}
+ -t 1.116848 -s 0 -d 2 -p ack -e 40 -c 0 -i 85 -a 0 -x {0.0 2.0 34 ------- null}
- -t 1.116848 -s 0 -d 2 -p ack -e 40 -c 0 -i 85 -a 0 -x {0.0 2.0 34 ------- null}
h -t 1.116848 -s 0 -d 2 -p ack -e 40 -c 0 -i 85 -a 0 -x {0.0 2.0 -1 ------- null}
- -t 1.117664 -s 2 -d 0 -p tcp -e 1040 -c 0 -i 79 -a 0 -x {2.0 0.0 48 ------- null}
h -t 1.117664 -s 2 -d 0 -p tcp -e 1040 -c 0 -i 79 -a 0 -x {2.0 0.0 -1 ------- null}
r -t 1.11768 -s 2 -d 0 -p tcp -e 1040 -c 0 -i 65 -a 0 -x {2.0 0.0 35 ------- null}
+ -t 1.11768 -s 0 -d 2 -p ack -e 40 -c 0 -i 86 -a 0 -x {0.0 2.0 35 ------- null}
- -t 1.11768 -s 0 -d 2 -p ack -e 40 -c 0 -i 86 -a 0 -x {0.0 2.0 35 ------- null}
h -t 1.11768 -s 0 -d 2 -p ack -e 40 -c 0 -i 86 -a 0 -x {0.0 2.0 -1 ------- null}
- -t 1.118496 -s 2 -d 0 -p tcp -e 1040 -c 0 -i 81 -a 0 -x {2.0 0.0 49 ------- null}
h -t 1.118496 -s 2 -d 0 -p tcp -e 1040 -c 0 -i 81 -a 0 -x {2.0 0.0 -1 ------- null}
r -t 1.118512 -s 2 -d 0 -p tcp -e 1040 -c 0 -i 66 -a 0 -x {2.0 0.0 36 ------- null}
+ -t 1.118512 -s 0 -d 2 -p ack -e 40 -c 0 -i 87 -a 0 -x {0.0 2.0 36 ------- null}
- -t 1.118512 -s 0 -d 2 -p ack -e 40 -c 0 -i 87 -a 0 -x {0.0 2.0 36 ------- null}
h -t 1.118512 -s 0 -d 2 -p ack -e 40 -c 0 -i 87 -a 0 -x {0.0 2.0 -1 ------- null}
- -t 1.119328 -s 2 -d 0 -p tcp -e 1040 -c 0 -i 83 -a 0 -x {2.0 0.0 50 ------- null}
h -t 1.119328 -s 2 -d 0 -p tcp -e 1040 -c 0 -i 83 -a 0 -x {2.0 0.0 -1 ------- null}
r -t 1.119344 -s 2 -d 0 -p tcp -e 1040 -c 0 -i 68 -a 0 -x {2.0 0.0 37 ------- null}
+ -t 1.119344 -s 0 -d 2 -p ack -e 40 -c 0 -i 88 -a 0 -x {0.0 2.0 37 ------- null}
- -t 1.119344 -s 0 -d 2 -p ack -e 40 -c 0 -i 88 -a 0 -x {0.0 2.0 37 ------- null}
h -t 1.119344 -s 0 -d 2 -p ack -e 40 -c 0 -i 88 -a 0 -x {0.0 2.0 -1 ------- null}
r -t 1.120176 -s 2 -d 0 -p tcp -e 1040 -c 0 -i 69 -a 0 -x {2.0 0.0 38 ------- null}
+ -t 1.120176 -s 0 -d 2 -p ack -e 40 -c 0 -i 89 -a 0 -x {0.0 2.0 38 ------- null}
- -t 1.120176 -s 0 -d 2 -p ack -e 40 -c 0 -i 89 -a 0 -x {0.0 2.0 38 ------- null}
h -t 1.120176 -s 0 -d 2 -p ack -e 40 -c 0 -i 89 -a 0 -x {0.0 2.0 -1 ------- null}
r -t 1.121008 -s 2 -d 0 -p tcp -e 1040 -c 0 -i 70 -a 0 -x {2.0 0.0 39 ------- null}
+ -t 1.121008 -s 0 -d 2 -p ack -e 40 -c 0 -i 90 -a 0 -x {0.0 2.0 39 ------- null}
- -t 1.121008 -s 0 -d 2 -p ack -e 40 -c 0 -i 90 -a 0 -x {0.0 2.0 39 ------- null}
h -t 1.121008 -s 0 -d 2 -p ack -e 40 -c 0 -i 90 -a 0 -x {0.0 2.0 -1 ------- null}
r -t 1.12184 -s 2 -d 0 -p tcp -e 1040 -c 0 -i 71 -a 0 -x {2.0 0.0 40 ------- null}
+ -t 1.12184 -s 0 -d 2 -p ack -e 40 -c 0 -i 91 -a 0 -x {0.0 2.0 40 ------- null}
- -t 1.12184 -s 0 -d 2 -p ack -e 40 -c 0 -i 91 -a 0 -x {0.0 2.0 40 ------- null}
h -t 1.12184 -s 0 -d 2 -p ack -e 40 -c 0 -i 91 -a 0 -x {0.0 2.0 -1 ------- null}
r -t 1.122672 -s 2 -d 0 -p tcp -e 1040 -c 0 -i 72 -a 0 -x {2.0 0.0 41 ------- null}
+ -t 1.122672 -s 0 -d 2 -p ack -e 40 -c 0 -i 92 -a 0 -x {0.0 2.0 41 ------- null}
- -t 1.122672 -s 0 -d 2 -p ack -e 40 -c 0 -i 92 -a 0 -x {0.0 2.0 41 ------- null}
h -t 1.122672 -s 0 -d 2 -p ack -e 40 -c 0 -i 92 -a 0 -x {0.0 2.0 -1 ------- null}
r -t 1.123504 -s 2 -d 0 -p tcp -e 1040 -c 0 -i 73 -a 0 -x {2.0 0.0 42 ------- null}
+ -t 1.123504 -s 0 -d 2 -p ack -e 40 -c 0 -i 93 -a 0 -x {0.0 2.0 42 ------- null}
- -t 1.123504 -s 0 -d 2 -p ack -e 40 -c 0 -i 93 -a 0 -x {0.0 2.0 42 ------- null}
h -t 1.123504 -s 0 -d 2 -p ack -e 40 -c 0 -i 93 -a 0 -x {0.0 2.0 -1 ------- null}