+ 0.5 0 1 cbr 210 ------- 0 0.1 1073741824.0 0 0
- 0.5 0 1 cbr 210 ------- 0 0.1 1073741824.0 0 0
+ 0.5 1 0 cbr 210 ------- 0 1.1 1073741825.0 0 1
- 0.5 1 0 cbr 210 ------- 0 1.1 1073741825.0 0 1
+ 0.5 1 2 cbr 210 ------- 0 1.1 1073741825.0 0 1
- 0.5 1 2 cbr 210 ------- 0 1.1 1073741825.0 0 1
+ 0.50375 0 1 cbr 210 ------- 0 0.1 1073741824.0 1 2
- 0.50375 0 1 cbr 210 ------- 0 0.1 1073741824.0 1 2
+ 0.50375 1 0 cbr 210 ------- 0 1.1 1073741825.0 1 3
- 0.50375 1 0 cbr 210 ------- 0 1.1 1073741825.0 1 3
+ 0.50375 1 2 cbr 210 ------- 0 1.1 1073741825.0 1 3
- 0.50375 1 2 cbr 210 ------- 0 1.1 1073741825.0 1 3
+ 0.5075 0 1 cbr 210 ------- 0 0.1 1073741824.0 2 4
- 0.5075 0 1 cbr 210 ------- 0 0.1 1073741824.0 2 4
+ 0.5075 1 0 cbr 210 ------- 0 1.1 1073741825.0 2 5
- 0.5075 1 0 cbr 210 ------- 0 1.1 1073741825.0 2 5
+ 0.5075 1 2 cbr 210 ------- 0 1.1 1073741825.0 2 5
- 0.5075 1 2 cbr 210 ------- 0 1.1 1073741825.0 2 5
r 0.51112 0 1 cbr 210 ------- 0 0.1 1073741824.0 0 0
+ 0.51112 1 2 cbr 210 ------- 0 0.1 1073741824.0 0 0
- 0.51112 1 2 cbr 210 ------- 0 0.1 1073741824.0 0 0
r 0.51112 1 0 cbr 210 ------- 0 1.1 1073741825.0 0 1
+ 0.51112 0 1 prune 80 ------- 30 0.0 1.0 -1 6
- 0.51112 0 1 prune 80 ------- 30 0.0 1.0 -1 6
r 0.51112 1 2 cbr 210 ------- 0 1.1 1073741825.0 0 1
+ 0.51112 2 3 cbr 210 ------- 0 1.1 1073741825.0 0 1
- 0.51112 2 3 cbr 210 ------- 0 1.1 1073741825.0 0 1
+ 0.51125 0 1 cbr 210 ------- 0 0.1 1073741824.0 3 7
+ 0.51125 1 0 cbr 210 ------- 0 1.1 1073741825.0 3 8
- 0.51125 1 0 cbr 210 ------- 0 1.1 1073741825.0 3 8
+ 0.51125 1 2 cbr 210 ------- 0 1.1 1073741825.0 3 8
- 0.511547 0 1 cbr 210 ------- 0 0.1 1073741824.0 3 7
- 0.51224 1 2 cbr 210 ------- 0 1.1 1073741825.0 3 8
r 0.51487 0 1 cbr 210 ------- 0 0.1 1073741824.0 1 2
+ 0.51487 1 2 cbr 210 ------- 0 0.1 1073741824.0 1 2
- 0.51487 1 2 cbr 210 ------- 0 0.1 1073741824.0 1 2
r 0.51487 1 0 cbr 210 ------- 0 1.1 1073741825.0 1 3
+ 0.51487 0 1 prune 80 ------- 30 0.0 1.0 -1 9
- 0.51487 0 1 prune 80 ------- 30 0.0 1.0 -1 9
r 0.51487 1 2 cbr 210 ------- 0 1.1 1073741825.0 1 3
+ 0.51487 2 3 cbr 210 ------- 0 1.1 1073741825.0 1 3
- 0.51487 2 3 cbr 210 ------- 0 1.1 1073741825.0 1 3
+ 0.515 0 1 cbr 210 ------- 0 0.1 1073741824.0 4 10
+ 0.515 1 0 cbr 210 ------- 0 1.1 1073741825.0 4 11
- 0.515 1 0 cbr 210 ------- 0 1.1 1073741825.0 4 11
+ 0.515 1 2 cbr 210 ------- 0 1.1 1073741825.0 4 11
- 0.515297 0 1 cbr 210 ------- 0 0.1 1073741824.0 4 10
- 0.51599 1 2 cbr 210 ------- 0 1.1 1073741825.0 4 11
r 0.51862 0 1 cbr 210 ------- 0 0.1 1073741824.0 2 4
+ 0.51862 1 2 cbr 210 ------- 0 0.1 1073741824.0 2 4
- 0.51862 1 2 cbr 210 ------- 0 0.1 1073741824.0 2 4
r 0.51862 1 0 cbr 210 ------- 0 1.1 1073741825.0 2 5
+ 0.51862 0 1 prune 80 ------- 30 0.0 1.0 -1 12
- 0.51862 0 1 prune 80 ------- 30 0.0 1.0 -1 12
r 0.51862 1 2 cbr 210 ------- 0 1.1 1073741825.0 2 5
+ 0.51862 2 3 cbr 210 ------- 0 1.1 1073741825.0 2 5
- 0.51862 2 3 cbr 210 ------- 0 1.1 1073741825.0 2 5
+ 0.51875 0 1 cbr 210 ------- 0 0.1 1073741824.0 5 13
+ 0.51875 1 0 cbr 210 ------- 0 1.1 1073741825.0 5 14
- 0.51875 1 0 cbr 210 ------- 0 1.1 1073741825.0 5 14
+ 0.51875 1 2 cbr 210 ------- 0 1.1 1073741825.0 5 14
- 0.519047 0 1 cbr 210 ------- 0 0.1 1073741824.0 5 13
- 0.51974 1 2 cbr 210 ------- 0 1.1 1073741825.0 5 14
r 0.521547 0 1 prune 80 ------- 30 0.0 1.0 -1 6
r 0.52224 1 2 cbr 210 ------- 0 0.1 1073741824.0 0 0
+ 0.52224 2 3 cbr 210 ------- 0 0.1 1073741824.0 0 0
- 0.52224 2 3 cbr 210 ------- 0 0.1 1073741824.0 0 0
r 0.52224 2 3 cbr 210 ------- 0 1.1 1073741825.0 0 1
+ 0.52224 3 4 cbr 210 ------- 0 1.1 1073741825.0 0 1
- 0.52224 3 4 cbr 210 ------- 0 1.1 1073741825.0 0 1
+ 0.52224 3 7 cbr 210 ------- 0 1.1 1073741825.0 0 1
- 0.52224 3 7 cbr 210 ------- 0 1.1 1073741825.0 0 1
r 0.52237 1 0 cbr 210 ------- 0 1.1 1073741825.0 3 8
+ 0.52237 0 1 prune 80 ------- 30 0.0 1.0 -1 15
- 0.52237 0 1 prune 80 ------- 30 0.0 1.0 -1 15
+ 0.5225 0 1 cbr 210 ------- 0 0.1 1073741824.0 6 16
+ 0.5225 1 2 cbr 210 ------- 0 1.1 1073741825.0 6 17
- 0.5225 1 2 cbr 210 ------- 0 1.1 1073741825.0 6 17
r 0.522667 0 1 cbr 210 ------- 0 0.1 1073741824.0 3 7
+ 0.522667 1 2 cbr 210 ------- 0 0.1 1073741824.0 3 7
- 0.522797 0 1 cbr 210 ------- 0 0.1 1073741824.0 6 16
r 0.52336 1 2 cbr 210 ------- 0 1.1 1073741825.0 3 8
+ 0.52336 2 3 cbr 210 ------- 0 1.1 1073741825.0 3 8
- 0.52336 2 3 cbr 210 ------- 0 1.1 1073741825.0 3 8
- 0.52362 1 2 cbr 210 ------- 0 0.1 1073741824.0 3 7
r 0.525297 0 1 prune 80 ------- 30 0.0 1.0 -1 9
r 0.52599 1 2 cbr 210 ------- 0 0.1 1073741824.0 1 2
+ 0.52599 2 3 cbr 210 ------- 0 0.1 1073741824.0 1 2
- 0.52599 2 3 cbr 210 ------- 0 0.1 1073741824.0 1 2
r 0.52599 2 3 cbr 210 ------- 0 1.1 1073741825.0 1 3
+ 0.52599 3 4 cbr 210 ------- 0 1.1 1073741825.0 1 3
- 0.52599 3 4 cbr 210 ------- 0 1.1 1073741825.0 1 3
+ 0.52599 3 7 cbr 210 ------- 0 1.1 1073741825.0 1 3
- 0.52599 3 7 cbr 210 ------- 0 1.1 1073741825.0 1 3
r 0.52612 1 0 cbr 210 ------- 0 1.1 1073741825.0 4 11
+ 0.52612 0 1 prune 80 ------- 30 0.0 1.0 -1 18
- 0.52612 0 1 prune 80 ------- 30 0.0 1.0 -1 18
+ 0.52625 0 1 cbr 210 ------- 0 0.1 1073741824.0 7 19
+ 0.52625 1 2 cbr 210 ------- 0 1.1 1073741825.0 7 20
- 0.52625 1 2 cbr 210 ------- 0 1.1 1073741825.0 7 20
r 0.526417 0 1 cbr 210 ------- 0 0.1 1073741824.0 4 10
+ 0.526417 1 2 cbr 210 ------- 0 0.1 1073741824.0 4 10
- 0.526547 0 1 cbr 210 ------- 0 0.1 1073741824.0 7 19
r 0.52711 1 2 cbr 210 ------- 0 1.1 1073741825.0 4 11
+ 0.52711 2 3 cbr 210 ------- 0 1.1 1073741825.0 4 11
- 0.52711 2 3 cbr 210 ------- 0 1.1 1073741825.0 4 11
- 0.52737 1 2 cbr 210 ------- 0 0.1 1073741824.0 4 10
r 0.529047 0 1 prune 80 ------- 30 0.0 1.0 -1 12
r 0.52974 1 2 cbr 210 ------- 0 0.1 1073741824.0 2 4
+ 0.52974 2 3 cbr 210 ------- 0 0.1 1073741824.0 2 4
- 0.52974 2 3 cbr 210 ------- 0 0.1 1073741824.0 2 4
r 0.52974 2 3 cbr 210 ------- 0 1.1 1073741825.0 2 5
+ 0.52974 3 4 cbr 210 ------- 0 1.1 1073741825.0 2 5
- 0.52974 3 4 cbr 210 ------- 0 1.1 1073741825.0 2 5
+ 0.52974 3 7 cbr 210 ------- 0 1.1 1073741825.0 2 5
- 0.52974 3 7 cbr 210 ------- 0 1.1 1073741825.0 2 5
r 0.52987 1 0 cbr 210 ------- 0 1.1 1073741825.0 5 14
+ 0.52987 0 1 prune 80 ------- 30 0.0 1.0 -1 21
- 0.52987 0 1 prune 80 ------- 30 0.0 1.0 -1 21
+ 0.53 0 1 cbr 210 ------- 0 0.1 1073741824.0 8 22
+ 0.53 1 2 cbr 210 ------- 0 1.1 1073741825.0 8 23
- 0.53 1 2 cbr 210 ------- 0 1.1 1073741825.0 8 23
r 0.530167 0 1 cbr 210 ------- 0 0.1 1073741824.0 5 13
+ 0.530167 1 2 cbr 210 ------- 0 0.1 1073741824.0 5 13
- 0.530297 0 1 cbr 210 ------- 0 0.1 1073741824.0 8 22
r 0.53086 1 2 cbr 210 ------- 0 1.1 1073741825.0 5 14
+ 0.53086 2 3 cbr 210 ------- 0 1.1 1073741825.0 5 14
- 0.53086 2 3 cbr 210 ------- 0 1.1 1073741825.0 5 14
- 0.53112 1 2 cbr 210 ------- 0 0.1 1073741824.0 5 13
r 0.532797 0 1 prune 80 ------- 30 0.0 1.0 -1 15
r 0.53336 2 3 cbr 210 ------- 0 0.1 1073741824.0 0 0
+ 0.53336 3 4 cbr 210 ------- 0 0.1 1073741824.0 0 0
- 0.53336 3 4 cbr 210 ------- 0 0.1 1073741824.0 0 0
+ 0.53336 3 7 cbr 210 ------- 0 0.1 1073741824.0 0 0
- 0.53336 3 7 cbr 210 ------- 0 0.1 1073741824.0 0 0
r 0.53336 3 4 cbr 210 ------- 0 1.1 1073741825.0 0 1
+ 0.53336 4 5 cbr 210 ------- 0 1.1 1073741825.0 0 1
- 0.53336 4 5 cbr 210 ------- 0 1.1 1073741825.0 0 1
+ 0.53336 4 6 cbr 210 ------- 0 1.1 1073741825.0 0 1
- 0.53336 4 6 cbr 210 ------- 0 1.1 1073741825.0 0 1
r 0.53336 3 7 cbr 210 ------- 0 1.1 1073741825.0 0 1
+ 0.53336 7 3 prune 80 ------- 30 7.0 3.0 -1 24
- 0.53336 7 3 prune 80 ------- 30 7.0 3.0 -1 24
r 0.53362 1 2 cbr 210 ------- 0 1.1 1073741825.0 6 17
+ 0.53362 2 3 cbr 210 ------- 0 1.1 1073741825.0 6 17
- 0.53362 2 3 cbr 210 ------- 0 1.1 1073741825.0 6 17
+ 0.53375 0 1 cbr 210 ------- 0 0.1 1073741824.0 9 25
- 0.53375 0 1 cbr 210 ------- 0 0.1 1073741824.0 9 25
+ 0.53375 1 2 cbr 210 ------- 0 1.1 1073741825.0 9 26
- 0.53375 1 2 cbr 210 ------- 0 1.1 1073741825.0 9 26
r 0.533917 0 1 cbr 210 ------- 0 0.1 1073741824.0 6 16
+ 0.533917 1 2 cbr 210 ------- 0 0.1 1073741824.0 6 16
r 0.53448 2 3 cbr 210 ------- 0 1.1 1073741825.0 3 8
+ 0.53448 3 4 cbr 210 ------- 0 1.1 1073741825.0 3 8
+ 0.53448 3 7 cbr 210 ------- 0 1.1 1073741825.0 3 8
- 0.53448 3 4 cbr 210 ------- 0 1.1 1073741825.0 3 8
- 0.53448 3 7 cbr 210 ------- 0 1.1 1073741825.0 3 8
r 0.53474 1 2 cbr 210 ------- 0 0.1 1073741824.0 3 7
+ 0.53474 2 3 cbr 210 ------- 0 0.1 1073741824.0 3 7
- 0.53474 2 3 cbr 210 ------- 0 0.1 1073741824.0 3 7
- 0.53487 1 2 cbr 210 ------- 0 0.1 1073741824.0 6 16
r 0.536547 0 1 prune 80 ------- 30 0.0 1.0 -1 18
r 0.53711 2 3 cbr 210 ------- 0 0.1 1073741824.0 1 2
+ 0.53711 3 4 cbr 210 ------- 0 0.1 1073741824.0 1 2
- 0.53711 3 4 cbr 210 ------- 0 0.1 1073741824.0 1 2
+ 0.53711 3 7 cbr 210 ------- 0 0.1 1073741824.0 1 2
- 0.53711 3 7 cbr 210 ------- 0 0.1 1073741824.0 1 2
r 0.53711 3 4 cbr 210 ------- 0 1.1 1073741825.0 1 3
+ 0.53711 4 5 cbr 210 ------- 0 1.1 1073741825.0 1 3
- 0.53711 4 5 cbr 210 ------- 0 1.1 1073741825.0 1 3
+ 0.53711 4 6 cbr 210 ------- 0 1.1 1073741825.0 1 3
- 0.53711 4 6 cbr 210 ------- 0 1.1 1073741825.0 1 3
r 0.53711 3 7 cbr 210 ------- 0 1.1 1073741825.0 1 3
+ 0.53711 7 3 prune 80 ------- 30 7.0 3.0 -1 27
- 0.53711 7 3 prune 80 ------- 30 7.0 3.0 -1 27
r 0.53737 1 2 cbr 210 ------- 0 1.1 1073741825.0 7 20
+ 0.53737 2 3 cbr 210 ------- 0 1.1 1073741825.0 7 20
- 0.53737 2 3 cbr 210 ------- 0 1.1 1073741825.0 7 20
+ 0.5375 0 1 cbr 210 ------- 0 0.1 1073741824.0 10 28
- 0.5375 0 1 cbr 210 ------- 0 0.1 1073741824.0 10 28
+ 0.5375 1 2 cbr 210 ------- 0 1.1 1073741825.0 10 29
- 0.5375 1 2 cbr 210 ------- 0 1.1 1073741825.0 10 29
r 0.537667 0 1 cbr 210 ------- 0 0.1 1073741824.0 7 19
+ 0.537667 1 2 cbr 210 ------- 0 0.1 1073741824.0 7 19
r 0.53823 2 3 cbr 210 ------- 0 1.1 1073741825.0 4 11
+ 0.53823 3 4 cbr 210 ------- 0 1.1 1073741825.0 4 11
+ 0.53823 3 7 cbr 210 ------- 0 1.1 1073741825.0 4 11
- 0.53823 3 4 cbr 210 ------- 0 1.1 1073741825.0 4 11
- 0.53823 3 7 cbr 210 ------- 0 1.1 1073741825.0 4 11
r 0.53849 1 2 cbr 210 ------- 0 0.1 1073741824.0 4 10
+ 0.53849 2 3 cbr 210 ------- 0 0.1 1073741824.0 4 10
- 0.53849 2 3 cbr 210 ------- 0 0.1 1073741824.0 4 10
- 0.53862 1 2 cbr 210 ------- 0 0.1 1073741824.0 7 19
r 0.540297 0 1 prune 80 ------- 30 0.0 1.0 -1 21
r 0.54086 2 3 cbr 210 ------- 0 0.1 1073741824.0 2 4
+ 0.54086 3 4 cbr 210 ------- 0 0.1 1073741824.0 2 4
- 0.54086 3 4 cbr 210 ------- 0 0.1 1073741824.0 2 4
+ 0.54086 3 7 cbr 210 ------- 0 0.1 1073741824.0 2 4
- 0.54086 3 7 cbr 210 ------- 0 0.1 1073741824.0 2 4
r 0.54086 3 4 cbr 210 ------- 0 1.1 1073741825.0 2 5
+ 0.54086 4 5 cbr 210 ------- 0 1.1 1073741825.0 2 5
- 0.54086 4 5 cbr 210 ------- 0 1.1 1073741825.0 2 5
+ 0.54086 4 6 cbr 210 ------- 0 1.1 1073741825.0 2 5
- 0.54086 4 6 cbr 210 ------- 0 1.1 1073741825.0 2 5
r 0.54086 3 7 cbr 210 ------- 0 1.1 1073741825.0 2 5
+ 0.54086 7 3 prune 80 ------- 30 7.0 3.0 -1 30
- 0.54086 7 3 prune 80 ------- 30 7.0 3.0 -1 30
r 0.54112 1 2 cbr 210 ------- 0 1.1 1073741825.0 8 23
+ 0.54112 2 3 cbr 210 ------- 0 1.1 1073741825.0 8 23
- 0.54112 2 3 cbr 210 ------- 0 1.1 1073741825.0 8 23
+ 0.54125 0 1 cbr 210 ------- 0 0.1 1073741824.0 11 31
- 0.54125 0 1 cbr 210 ------- 0 0.1 1073741824.0 11 31
+ 0.54125 1 2 cbr 210 ------- 0 1.1 1073741825.0 11 32
- 0.54125 1 2 cbr 210 ------- 0 1.1 1073741825.0 11 32
r 0.541417 0 1 cbr 210 ------- 0 0.1 1073741824.0 8 22
+ 0.541417 1 2 cbr 210 ------- 0 0.1 1073741824.0 8 22
r 0.54198 2 3 cbr 210 ------- 0 1.1 1073741825.0 5 14
+ 0.54198 3 4 cbr 210 ------- 0 1.1 1073741825.0 5 14
+ 0.54198 3 7 cbr 210 ------- 0 1.1 1073741825.0 5 14
- 0.54198 3 4 cbr 210 ------- 0 1.1 1073741825.0 5 14
- 0.54198 3 7 cbr 210 ------- 0 1.1 1073741825.0 5 14
r 0.54224 1 2 cbr 210 ------- 0 0.1 1073741824.0 5 13
+ 0.54224 2 3 cbr 210 ------- 0 0.1 1073741824.0 5 13
- 0.54224 2 3 cbr 210 ------- 0 0.1 1073741824.0 5 13
- 0.54237 1 2 cbr 210 ------- 0 0.1 1073741824.0 8 22
r 0.543787 7 3 prune 80 ------- 30 7.0 3.0 -1 24
r 0.54448 3 4 cbr 210 ------- 0 0.1 1073741824.0 0 0
+ 0.54448 4 5 cbr 210 ------- 0 0.1 1073741824.0 0 0
- 0.54448 4 5 cbr 210 ------- 0 0.1 1073741824.0 0 0
+ 0.54448 4 6 cbr 210 ------- 0 0.1 1073741824.0 0 0
- 0.54448 4 6 cbr 210 ------- 0 0.1 1073741824.0 0 0
r 0.54448 3 7 cbr 210 ------- 0 0.1 1073741824.0 0 0
+ 0.54448 7 3 prune 80 ------- 30 7.0 3.0 -1 33
- 0.54448 7 3 prune 80 ------- 30 7.0 3.0 -1 33
r 0.54448 4 5 cbr 210 ------- 0 1.1 1073741825.0 0 1
+ 0.54448 5 4 prune 80 ------- 30 5.0 4.0 -1 34
- 0.54448 5 4 prune 80 ------- 30 5.0 4.0 -1 34
r 0.54448 4 6 cbr 210 ------- 0 1.1 1073741825.0 0 1
+ 0.54448 6 4 prune 80 ------- 30 6.0 4.0 -1 35
- 0.54448 6 4 prune 80 ------- 30 6.0 4.0 -1 35
r 0.54474 2 3 cbr 210 ------- 0 1.1 1073741825.0 6 17
+ 0.54474 3 4 cbr 210 ------- 0 1.1 1073741825.0 6 17
- 0.54474 3 4 cbr 210 ------- 0 1.1 1073741825.0 6 17
r 0.54487 0 1 cbr 210 ------- 0 0.1 1073741824.0 9 25
+ 0.54487 1 2 cbr 210 ------- 0 0.1 1073741824.0 9 25
- 0.54487 1 2 cbr 210 ------- 0 0.1 1073741824.0 9 25
r 0.54487 1 2 cbr 210 ------- 0 1.1 1073741825.0 9 26
+ 0.54487 2 3 cbr 210 ------- 0 1.1 1073741825.0 9 26
- 0.54487 2 3 cbr 210 ------- 0 1.1 1073741825.0 9 26
+ 0.545 0 1 cbr 210 ------- 0 0.1 1073741824.0 12 36
- 0.545 0 1 cbr 210 ------- 0 0.1 1073741824.0 12 36
+ 0.545 1 2 cbr 210 ------- 0 1.1 1073741825.0 12 37
r 0.5456 3 4 cbr 210 ------- 0 1.1 1073741825.0 3 8
+ 0.5456 4 5 cbr 210 ------- 0 1.1 1073741825.0 3 8
+ 0.5456 4 6 cbr 210 ------- 0 1.1 1073741825.0 3 8
r 0.5456 3 7 cbr 210 ------- 0 1.1 1073741825.0 3 8
+ 0.5456 7 3 prune 80 ------- 30 7.0 3.0 -1 38
- 0.5456 7 3 prune 80 ------- 30 7.0 3.0 -1 38
- 0.5456 4 5 cbr 210 ------- 0 1.1 1073741825.0 3 8
- 0.5456 4 6 cbr 210 ------- 0 1.1 1073741825.0 3 8
r 0.54586 2 3 cbr 210 ------- 0 0.1 1073741824.0 3 7
+ 0.54586 3 4 cbr 210 ------- 0 0.1 1073741824.0 3 7
+ 0.54586 3 7 cbr 210 ------- 0 0.1 1073741824.0 3 7
- 0.54586 3 7 cbr 210 ------- 0 0.1 1073741824.0 3 7
- 0.54586 3 4 cbr 210 ------- 0 0.1 1073741824.0 3 7
r 0.54599 1 2 cbr 210 ------- 0 0.1 1073741824.0 6 16
+ 0.54599 2 3 cbr 210 ------- 0 0.1 1073741824.0 6 16
- 0.54599 1 2 cbr 210 ------- 0 1.1 1073741825.0 12 37
- 0.54599 2 3 cbr 210 ------- 0 0.1 1073741824.0 6 16
r 0.547537 7 3 prune 80 ------- 30 7.0 3.0 -1 27
r 0.54823 3 4 cbr 210 ------- 0 0.1 1073741824.0 1 2
+ 0.54823 4 5 cbr 210 ------- 0 0.1 1073741824.0 1 2
- 0.54823 4 5 cbr 210 ------- 0 0.1 1073741824.0 1 2
+ 0.54823 4 6 cbr 210 ------- 0 0.1 1073741824.0 1 2
- 0.54823 4 6 cbr 210 ------- 0 0.1 1073741824.0 1 2
r 0.54823 3 7 cbr 210 ------- 0 0.1 1073741824.0 1 2
+ 0.54823 7 3 prune 80 ------- 30 7.0 3.0 -1 39
- 0.54823 7 3 prune 80 ------- 30 7.0 3.0 -1 39
r 0.54823 4 5 cbr 210 ------- 0 1.1 1073741825.0 1 3
+ 0.54823 5 4 prune 80 ------- 30 5.0 4.0 -1 40
- 0.54823 5 4 prune 80 ------- 30 5.0 4.0 -1 40
r 0.54823 4 6 cbr 210 ------- 0 1.1 1073741825.0 1 3
+ 0.54823 6 4 prune 80 ------- 30 6.0 4.0 -1 41
- 0.54823 6 4 prune 80 ------- 30 6.0 4.0 -1 41
r 0.54849 2 3 cbr 210 ------- 0 1.1 1073741825.0 7 20
+ 0.54849 3 4 cbr 210 ------- 0 1.1 1073741825.0 7 20
- 0.54849 3 4 cbr 210 ------- 0 1.1 1073741825.0 7 20
r 0.54862 0 1 cbr 210 ------- 0 0.1 1073741824.0 10 28
+ 0.54862 1 2 cbr 210 ------- 0 0.1 1073741824.0 10 28
- 0.54862 1 2 cbr 210 ------- 0 0.1 1073741824.0 10 28
r 0.54862 1 2 cbr 210 ------- 0 1.1 1073741825.0 10 29
+ 0.54862 2 3 cbr 210 ------- 0 1.1 1073741825.0 10 29
- 0.54862 2 3 cbr 210 ------- 0 1.1 1073741825.0 10 29
+ 0.54875 0 1 cbr 210 ------- 0 0.1 1073741824.0 13 42
- 0.54875 0 1 cbr 210 ------- 0 0.1 1073741824.0 13 42
+ 0.54875 1 2 cbr 210 ------- 0 1.1 1073741825.0 13 43
r 0.54935 3 4 cbr 210 ------- 0 1.1 1073741825.0 4 11
+ 0.54935 4 5 cbr 210 ------- 0 1.1 1073741825.0 4 11
+ 0.54935 4 6 cbr 210 ------- 0 1.1 1073741825.0 4 11
r 0.54935 3 7 cbr 210 ------- 0 1.1 1073741825.0 4 11
+ 0.54935 7 3 prune 80 ------- 30 7.0 3.0 -1 44
- 0.54935 7 3 prune 80 ------- 30 7.0 3.0 -1 44
- 0.54935 4 5 cbr 210 ------- 0 1.1 1073741825.0 4 11
- 0.54935 4 6 cbr 210 ------- 0 1.1 1073741825.0 4 11
r 0.54961 2 3 cbr 210 ------- 0 0.1 1073741824.0 4 10
+ 0.54961 3 4 cbr 210 ------- 0 0.1 1073741824.0 4 10
+ 0.54961 3 7 cbr 210 ------- 0 0.1 1073741824.0 4 10
- 0.54961 3 7 cbr 210 ------- 0 0.1 1073741824.0 4 10
- 0.54961 3 4 cbr 210 ------- 0 0.1 1073741824.0 4 10
r 0.54974 1 2 cbr 210 ------- 0 0.1 1073741824.0 7 19
+ 0.54974 2 3 cbr 210 ------- 0 0.1 1073741824.0 7 19
- 0.54974 1 2 cbr 210 ------- 0 1.1 1073741825.0 13 43
- 0.54974 2 3 cbr 210 ------- 0 0.1 1073741824.0 7 19
r 0.551287 7 3 prune 80 ------- 30 7.0 3.0 -1 30
r 0.55198 3 4 cbr 210 ------- 0 0.1 1073741824.0 2 4
+ 0.55198 4 5 cbr 210 ------- 0 0.1 1073741824.0 2 4
- 0.55198 4 5 cbr 210 ------- 0 0.1 1073741824.0 2 4
+ 0.55198 4 6 cbr 210 ------- 0 0.1 1073741824.0 2 4
- 0.55198 4 6 cbr 210 ------- 0 0.1 1073741824.0 2 4
r 0.55198 3 7 cbr 210 ------- 0 0.1 1073741824.0 2 4
+ 0.55198 7 3 prune 80 ------- 30 7.0 3.0 -1 45
- 0.55198 7 3 prune 80 ------- 30 7.0 3.0 -1 45
r 0.55198 4 5 cbr 210 ------- 0 1.1 1073741825.0 2 5
+ 0.55198 5 4 prune 80 ------- 30 5.0 4.0 -1 46
- 0.55198 5 4 prune 80 ------- 30 5.0 4.0 -1 46
r 0.55198 4 6 cbr 210 ------- 0 1.1 1073741825.0 2 5
+ 0.55198 6 4 prune 80 ------- 30 6.0 4.0 -1 47
- 0.55198 6 4 prune 80 ------- 30 6.0 4.0 -1 47
r 0.55224 2 3 cbr 210 ------- 0 1.1 1073741825.0 8 23
+ 0.55224 3 4 cbr 210 ------- 0 1.1 1073741825.0 8 23
- 0.55224 3 4 cbr 210 ------- 0 1.1 1073741825.0 8 23
r 0.55237 0 1 cbr 210 ------- 0 0.1 1073741824.0 11 31
+ 0.55237 1 2 cbr 210 ------- 0 0.1 1073741824.0 11 31
- 0.55237 1 2 cbr 210 ------- 0 0.1 1073741824.0 11 31
r 0.55237 1 2 cbr 210 ------- 0 1.1 1073741825.0 11 32
+ 0.55237 2 3 cbr 210 ------- 0 1.1 1073741825.0 11 32
- 0.55237 2 3 cbr 210 ------- 0 1.1 1073741825.0 11 32
+ 0.5525 0 1 cbr 210 ------- 0 0.1 1073741824.0 14 48
- 0.5525 0 1 cbr 210 ------- 0 0.1 1073741824.0 14 48
+ 0.5525 1 2 cbr 210 ------- 0 1.1 1073741825.0 14 49
r 0.5531 3 4 cbr 210 ------- 0 1.1 1073741825.0 5 14
+ 0.5531 4 5 cbr 210 ------- 0 1.1 1073741825.0 5 14
+ 0.5531 4 6 cbr 210 ------- 0 1.1 1073741825.0 5 14
r 0.5531 3 7 cbr 210 ------- 0 1.1 1073741825.0 5 14
+ 0.5531 7 3 prune 80 ------- 30 7.0 3.0 -1 50
- 0.5531 7 3 prune 80 ------- 30 7.0 3.0 -1 50
- 0.5531 4 5 cbr 210 ------- 0 1.1 1073741825.0 5 14
- 0.5531 4 6 cbr 210 ------- 0 1.1 1073741825.0 5 14
r 0.55336 2 3 cbr 210 ------- 0 0.1 1073741824.0 5 13
+ 0.55336 3 4 cbr 210 ------- 0 0.1 1073741824.0 5 13
+ 0.55336 3 7 cbr 210 ------- 0 0.1 1073741824.0 5 13
- 0.55336 3 7 cbr 210 ------- 0 0.1 1073741824.0 5 13
- 0.55336 3 4 cbr 210 ------- 0 0.1 1073741824.0 5 13
r 0.55349 1 2 cbr 210 ------- 0 0.1 1073741824.0 8 22
+ 0.55349 2 3 cbr 210 ------- 0 0.1 1073741824.0 8 22
- 0.55349 1 2 cbr 210 ------- 0 1.1 1073741825.0 14 49
- 0.55349 2 3 cbr 210 ------- 0 0.1 1073741824.0 8 22
r 0.554907 7 3 prune 80 ------- 30 7.0 3.0 -1 33
r 0.554907 5 4 prune 80 ------- 30 5.0 4.0 -1 34
r 0.554907 6 4 prune 80 ------- 30 6.0 4.0 -1 35
+ 0.554907 4 3 prune 80 ------- 30 4.0 3.0 -1 51
- 0.554907 4 3 prune 80 ------- 30 4.0 3.0 -1 51
r 0.5556 4 5 cbr 210 ------- 0 0.1 1073741824.0 0 0
+ 0.5556 5 4 prune 80 ------- 30 5.0 4.0 -1 52
- 0.5556 5 4 prune 80 ------- 30 5.0 4.0 -1 52
r 0.5556 4 6 cbr 210 ------- 0 0.1 1073741824.0 0 0
+ 0.5556 6 4 prune 80 ------- 30 6.0 4.0 -1 53
- 0.5556 6 4 prune 80 ------- 30 6.0 4.0 -1 53
r 0.55586 3 4 cbr 210 ------- 0 1.1 1073741825.0 6 17
+ 0.55586 4 3 prune 80 ------- 30 4.0 3.0 -1 54
- 0.55586 4 3 prune 80 ------- 30 4.0 3.0 -1 54
r 0.55599 1 2 cbr 210 ------- 0 0.1 1073741824.0 9 25
+ 0.55599 2 3 cbr 210 ------- 0 0.1 1073741824.0 9 25
- 0.55599 2 3 cbr 210 ------- 0 0.1 1073741824.0 9 25
r 0.55599 2 3 cbr 210 ------- 0 1.1 1073741825.0 9 26
+ 0.55599 3 4 cbr 210 ------- 0 1.1 1073741825.0 9 26
- 0.55599 3 4 cbr 210 ------- 0 1.1 1073741825.0 9 26
r 0.556027 7 3 prune 80 ------- 30 7.0 3.0 -1 38
r 0.55612 0 1 cbr 210 ------- 0 0.1 1073741824.0 12 36
+ 0.55612 1 2 cbr 210 ------- 0 0.1 1073741824.0 12 36
- 0.55612 1 2 cbr 210 ------- 0 0.1 1073741824.0 12 36
+ 0.55625 0 1 cbr 210 ------- 0 0.1 1073741824.0 15 55
- 0.55625 0 1 cbr 210 ------- 0 0.1 1073741824.0 15 55
+ 0.55625 1 2 cbr 210 ------- 0 1.1 1073741825.0 15 56
r 0.55672 4 5 cbr 210 ------- 0 1.1 1073741825.0 3 8
+ 0.55672 5 4 prune 80 ------- 30 5.0 4.0 -1 57
- 0.55672 5 4 prune 80 ------- 30 5.0 4.0 -1 57
r 0.55672 4 6 cbr 210 ------- 0 1.1 1073741825.0 3 8
+ 0.55672 6 4 prune 80 ------- 30 6.0 4.0 -1 58
- 0.55672 6 4 prune 80 ------- 30 6.0 4.0 -1 58
r 0.55698 3 7 cbr 210 ------- 0 0.1 1073741824.0 3 7
+ 0.55698 7 3 prune 80 ------- 30 7.0 3.0 -1 59
- 0.55698 7 3 prune 80 ------- 30 7.0 3.0 -1 59
r 0.55698 3 4 cbr 210 ------- 0 0.1 1073741824.0 3 7
+ 0.55698 4 5 cbr 210 ------- 0 0.1 1073741824.0 3 7
- 0.55698 4 5 cbr 210 ------- 0 0.1 1073741824.0 3 7
+ 0.55698 4 6 cbr 210 ------- 0 0.1 1073741824.0 3 7
- 0.55698 4 6 cbr 210 ------- 0 0.1 1073741824.0 3 7
r 0.55711 1 2 cbr 210 ------- 0 1.1 1073741825.0 12 37
+ 0.55711 2 3 cbr 210 ------- 0 1.1 1073741825.0 12 37
r 0.55711 2 3 cbr 210 ------- 0 0.1 1073741824.0 6 16
+ 0.55711 3 4 cbr 210 ------- 0 0.1 1073741824.0 6 16
- 0.55711 2 3 cbr 210 ------- 0 1.1 1073741825.0 12 37
- 0.55711 3 4 cbr 210 ------- 0 0.1 1073741824.0 6 16
- 0.55724 1 2 cbr 210 ------- 0 1.1 1073741825.0 15 56
r 0.558657 7 3 prune 80 ------- 30 7.0 3.0 -1 39
r 0.558657 5 4 prune 80 ------- 30 5.0 4.0 -1 40
r 0.558657 6 4 prune 80 ------- 30 6.0 4.0 -1 41
r 0.55935 4 5 cbr 210 ------- 0 0.1 1073741824.0 1 2
+ 0.55935 5 4 prune 80 ------- 30 5.0 4.0 -1 60
- 0.55935 5 4 prune 80 ------- 30 5.0 4.0 -1 60
r 0.55935 4 6 cbr 210 ------- 0 0.1 1073741824.0 1 2
+ 0.55935 6 4 prune 80 ------- 30 6.0 4.0 -1 61
- 0.55935 6 4 prune 80 ------- 30 6.0 4.0 -1 61
r 0.55961 3 4 cbr 210 ------- 0 1.1 1073741825.0 7 20
+ 0.55961 4 3 prune 80 ------- 30 4.0 3.0 -1 62
- 0.55961 4 3 prune 80 ------- 30 4.0 3.0 -1 62
r 0.55974 1 2 cbr 210 ------- 0 0.1 1073741824.0 10 28
+ 0.55974 2 3 cbr 210 ------- 0 0.1 1073741824.0 10 28
- 0.55974 2 3 cbr 210 ------- 0 0.1 1073741824.0 10 28
r 0.55974 2 3 cbr 210 ------- 0 1.1 1073741825.0 10 29
+ 0.55974 3 4 cbr 210 ------- 0 1.1 1073741825.0 10 29
- 0.55974 3 4 cbr 210 ------- 0 1.1 1073741825.0 10 29
r 0.559777 7 3 prune 80 ------- 30 7.0 3.0 -1 44
r 0.55987 0 1 cbr 210 ------- 0 0.1 1073741824.0 13 42
+ 0.55987 1 2 cbr 210 ------- 0 0.1 1073741824.0 13 42
- 0.55987 1 2 cbr 210 ------- 0 0.1 1073741824.0 13 42
+ 0.56 0 1 cbr 210 ------- 0 0.1 1073741824.0 16 63
- 0.56 0 1 cbr 210 ------- 0 0.1 1073741824.0 16 63
+ 0.56 1 2 cbr 210 ------- 0 1.1 1073741825.0 16 64
r 0.56047 4 5 cbr 210 ------- 0 1.1 1073741825.0 4 11
+ 0.56047 5 4 prune 80 ------- 30 5.0 4.0 -1 65
- 0.56047 5 4 prune 80 ------- 30 5.0 4.0 -1 65
r 0.56047 4 6 cbr 210 ------- 0 1.1 1073741825.0 4 11
+ 0.56047 6 4 prune 80 ------- 30 6.0 4.0 -1 66
- 0.56047 6 4 prune 80 ------- 30 6.0 4.0 -1 66
r 0.56073 3 7 cbr 210 ------- 0 0.1 1073741824.0 4 10
+ 0.56073 7 3 prune 80 ------- 30 7.0 3.0 -1 67
- 0.56073 7 3 prune 80 ------- 30 7.0 3.0 -1 67
r 0.56073 3 4 cbr 210 ------- 0 0.1 1073741824.0 4 10
+ 0.56073 4 5 cbr 210 ------- 0 0.1 1073741824.0 4 10
- 0.56073 4 5 cbr 210 ------- 0 0.1 1073741824.0 4 10
+ 0.56073 4 6 cbr 210 ------- 0 0.1 1073741824.0 4 10
- 0.56073 4 6 cbr 210 ------- 0 0.1 1073741824.0 4 10
r 0.56086 1 2 cbr 210 ------- 0 1.1 1073741825.0 13 43
+ 0.56086 2 3 cbr 210 ------- 0 1.1 1073741825.0 13 43
r 0.56086 2 3 cbr 210 ------- 0 0.1 1073741824.0 7 19
+ 0.56086 3 4 cbr 210 ------- 0 0.1 1073741824.0 7 19
- 0.56086 2 3 cbr 210 ------- 0 1.1 1073741825.0 13 43
- 0.56086 3 4 cbr 210 ------- 0 0.1 1073741824.0 7 19
- 0.56099 1 2 cbr 210 ------- 0 1.1 1073741825.0 16 64
r 0.562407 7 3 prune 80 ------- 30 7.0 3.0 -1 45
r 0.562407 5 4 prune 80 ------- 30 5.0 4.0 -1 46
r 0.562407 6 4 prune 80 ------- 30 6.0 4.0 -1 47
r 0.5631 4 5 cbr 210 ------- 0 0.1 1073741824.0 2 4
+ 0.5631 5 4 prune 80 ------- 30 5.0 4.0 -1 68
- 0.5631 5 4 prune 80 ------- 30 5.0 4.0 -1 68
r 0.5631 4 6 cbr 210 ------- 0 0.1 1073741824.0 2 4
+ 0.5631 6 4 prune 80 ------- 30 6.0 4.0 -1 69
- 0.5631 6 4 prune 80 ------- 30 6.0 4.0 -1 69
r 0.56336 3 4 cbr 210 ------- 0 1.1 1073741825.0 8 23
+ 0.56336 4 3 prune 80 ------- 30 4.0 3.0 -1 70
- 0.56336 4 3 prune 80 ------- 30 4.0 3.0 -1 70
r 0.56349 1 2 cbr 210 ------- 0 0.1 1073741824.0 11 31
+ 0.56349 2 3 cbr 210 ------- 0 0.1 1073741824.0 11 31
- 0.56349 2 3 cbr 210 ------- 0 0.1 1073741824.0 11 31
r 0.56349 2 3 cbr 210 ------- 0 1.1 1073741825.0 11 32
+ 0.56349 3 4 cbr 210 ------- 0 1.1 1073741825.0 11 32
- 0.56349 3 4 cbr 210 ------- 0 1.1 1073741825.0 11 32
r 0.563527 7 3 prune 80 ------- 30 7.0 3.0 -1 50
r 0.56362 0 1 cbr 210 ------- 0 0.1 1073741824.0 14 48
+ 0.56362 1 2 cbr 210 ------- 0 0.1 1073741824.0 14 48
- 0.56362 1 2 cbr 210 ------- 0 0.1 1073741824.0 14 48
+ 0.56375 0 1 cbr 210 ------- 0 0.1 1073741824.0 17 71
- 0.56375 0 1 cbr 210 ------- 0 0.1 1073741824.0 17 71
+ 0.56375 1 2 cbr 210 ------- 0 1.1 1073741825.0 17 72
r 0.56422 4 5 cbr 210 ------- 0 1.1 1073741825.0 5 14
+ 0.56422 5 4 prune 80 ------- 30 5.0 4.0 -1 73
- 0.56422 5 4 prune 80 ------- 30 5.0 4.0 -1 73
r 0.56422 4 6 cbr 210 ------- 0 1.1 1073741825.0 5 14
+ 0.56422 6 4 prune 80 ------- 30 6.0 4.0 -1 74
- 0.56422 6 4 prune 80 ------- 30 6.0 4.0 -1 74
r 0.56448 3 7 cbr 210 ------- 0 0.1 1073741824.0 5 13
+ 0.56448 7 3 prune 80 ------- 30 7.0 3.0 -1 75
- 0.56448 7 3 prune 80 ------- 30 7.0 3.0 -1 75
r 0.56448 3 4 cbr 210 ------- 0 0.1 1073741824.0 5 13
+ 0.56448 4 5 cbr 210 ------- 0 0.1 1073741824.0 5 13
- 0.56448 4 5 cbr 210 ------- 0 0.1 1073741824.0 5 13
+ 0.56448 4 6 cbr 210 ------- 0 0.1 1073741824.0 5 13
- 0.56448 4 6 cbr 210 ------- 0 0.1 1073741824.0 5 13
r 0.56461 1 2 cbr 210 ------- 0 1.1 1073741825.0 14 49
+ 0.56461 2 3 cbr 210 ------- 0 1.1 1073741825.0 14 49
r 0.56461 2 3 cbr 210 ------- 0 0.1 1073741824.0 8 22
+ 0.56461 3 4 cbr 210 ------- 0 0.1 1073741824.0 8 22
- 0.56461 2 3 cbr 210 ------- 0 1.1 1073741825.0 14 49
- 0.56461 3 4 cbr 210 ------- 0 0.1 1073741824.0 8 22
- 0.56474 1 2 cbr 210 ------- 0 1.1 1073741825.0 17 72
r 0.565333 4 3 prune 80 ------- 30 4.0 3.0 -1 51
+ 0.565333 3 2 prune 80 ------- 30 3.0 2.0 -1 76
- 0.565333 3 2 prune 80 ------- 30 3.0 2.0 -1 76
r 0.566027 5 4 prune 80 ------- 30 5.0 4.0 -1 52
r 0.566027 6 4 prune 80 ------- 30 6.0 4.0 -1 53
+ 0.566027 4 3 prune 80 ------- 30 4.0 3.0 -1 77
- 0.566027 4 3 prune 80 ------- 30 4.0 3.0 -1 77
r 0.566287 4 3 prune 80 ------- 30 4.0 3.0 -1 54
r 0.56711 2 3 cbr 210 ------- 0 0.1 1073741824.0 9 25
+ 0.56711 3 4 cbr 210 ------- 0 0.1 1073741824.0 9 25
- 0.56711 3 4 cbr 210 ------- 0 0.1 1073741824.0 9 25
r 0.56711 3 4 cbr 210 ------- 0 1.1 1073741825.0 9 26
+ 0.56711 4 3 prune 80 ------- 30 4.0 3.0 -1 78
- 0.56711 4 3 prune 80 ------- 30 4.0 3.0 -1 78
r 0.567147 5 4 prune 80 ------- 30 5.0 4.0 -1 57
r 0.567147 6 4 prune 80 ------- 30 6.0 4.0 -1 58
r 0.56724 1 2 cbr 210 ------- 0 0.1 1073741824.0 12 36
+ 0.56724 2 3 cbr 210 ------- 0 0.1 1073741824.0 12 36
- 0.56724 2 3 cbr 210 ------- 0 0.1 1073741824.0 12 36
r 0.56737 0 1 cbr 210 ------- 0 0.1 1073741824.0 15 55
+ 0.56737 1 2 cbr 210 ------- 0 0.1 1073741824.0 15 55
- 0.56737 1 2 cbr 210 ------- 0 0.1 1073741824.0 15 55
r 0.567407 7 3 prune 80 ------- 30 7.0 3.0 -1 59
+ 0.5675 0 1 cbr 210 ------- 0 0.1 1073741824.0 18 79
- 0.5675 0 1 cbr 210 ------- 0 0.1 1073741824.0 18 79
+ 0.5675 1 2 cbr 210 ------- 0 1.1 1073741825.0 18 80
r 0.5681 4 5 cbr 210 ------- 0 0.1 1073741824.0 3 7
+ 0.5681 5 4 prune 80 ------- 30 5.0 4.0 -1 81
- 0.5681 5 4 prune 80 ------- 30 5.0 4.0 -1 81
r 0.5681 4 6 cbr 210 ------- 0 0.1 1073741824.0 3 7
+ 0.5681 6 4 prune 80 ------- 30 6.0 4.0 -1 82
- 0.5681 6 4 prune 80 ------- 30 6.0 4.0 -1 82
r 0.56823 2 3 cbr 210 ------- 0 1.1 1073741825.0 12 37
+ 0.56823 3 2 prune 80 ------- 30 3.0 2.0 -1 83
- 0.56823 3 2 prune 80 ------- 30 3.0 2.0 -1 83
r 0.56823 3 4 cbr 210 ------- 0 0.1 1073741824.0 6 16
+ 0.56823 4 3 prune 80 ------- 30 4.0 3.0 -1 84
- 0.56823 4 3 prune 80 ------- 30 4.0 3.0 -1 84
r 0.56836 1 2 cbr 210 ------- 0 1.1 1073741825.0 15 56
+ 0.56836 2 3 cbr 210 ------- 0 1.1 1073741825.0 15 56
- 0.56836 2 3 cbr 210 ------- 0 1.1 1073741825.0 15 56
- 0.56849 1 2 cbr 210 ------- 0 1.1 1073741825.0 18 80
r 0.569777 5 4 prune 80 ------- 30 5.0 4.0 -1 60
r 0.569777 6 4 prune 80 ------- 30 6.0 4.0 -1 61
r 0.570037 4 3 prune 80 ------- 30 4.0 3.0 -1 62
r 0.57086 2 3 cbr 210 ------- 0 0.1 1073741824.0 10 28
+ 0.57086 3 4 cbr 210 ------- 0 0.1 1073741824.0 10 28
- 0.57086 3 4 cbr 210 ------- 0 0.1 1073741824.0 10 28
r 0.57086 3 4 cbr 210 ------- 0 1.1 1073741825.0 10 29
+ 0.57086 4 3 prune 80 ------- 30 4.0 3.0 -1 85
- 0.57086 4 3 prune 80 ------- 30 4.0 3.0 -1 85
r 0.570897 5 4 prune 80 ------- 30 5.0 4.0 -1 65
r 0.570897 6 4 prune 80 ------- 30 6.0 4.0 -1 66
r 0.57099 1 2 cbr 210 ------- 0 0.1 1073741824.0 13 42
+ 0.57099 2 3 cbr 210 ------- 0 0.1 1073741824.0 13 42
- 0.57099 2 3 cbr 210 ------- 0 0.1 1073741824.0 13 42
r 0.57112 0 1 cbr 210 ------- 0 0.1 1073741824.0 16 63
+ 0.57112 1 2 cbr 210 ------- 0 0.1 1073741824.0 16 63
- 0.57112 1 2 cbr 210 ------- 0 0.1 1073741824.0 16 63
r 0.571157 7 3 prune 80 ------- 30 7.0 3.0 -1 67
+ 0.57125 0 1 cbr 210 ------- 0 0.1 1073741824.0 19 86
- 0.57125 0 1 cbr 210 ------- 0 0.1 1073741824.0 19 86
+ 0.57125 1 2 cbr 210 ------- 0 1.1 1073741825.0 19 87
r 0.57185 4 5 cbr 210 ------- 0 0.1 1073741824.0 4 10
+ 0.57185 5 4 prune 80 ------- 30 5.0 4.0 -1 88
- 0.57185 5 4 prune 80 ------- 30 5.0 4.0 -1 88
r 0.57185 4 6 cbr 210 ------- 0 0.1 1073741824.0 4 10
+ 0.57185 6 4 prune 80 ------- 30 6.0 4.0 -1 89
- 0.57185 6 4 prune 80 ------- 30 6.0 4.0 -1 89
r 0.57198 2 3 cbr 210 ------- 0 1.1 1073741825.0 13 43
+ 0.57198 3 2 prune 80 ------- 30 3.0 2.0 -1 90
- 0.57198 3 2 prune 80 ------- 30 3.0 2.0 -1 90
r 0.57198 3 4 cbr 210 ------- 0 0.1 1073741824.0 7 19
+ 0.57198 4 3 prune 80 ------- 30 4.0 3.0 -1 91
- 0.57198 4 3 prune 80 ------- 30 4.0 3.0 -1 91
r 0.57211 1 2 cbr 210 ------- 0 1.1 1073741825.0 16 64